# vtk DataFile Version 2.0
time_10.vtk
ASCII
DATASET STRUCTURED_GRID
DIMENSIONS      64     64      1
POINTS    4096 float
      0.000000      0.000000      0.000000
      0.000000      0.500000      0.000000
      0.000000      1.000000      0.000000
      0.000000      1.500000      0.000000
      0.000000      2.000000      0.000000
      0.000000      2.500000      0.000000
      0.000000      3.000000      0.000000
      0.000000      3.500000      0.000000
      0.000000      4.000000      0.000000
      0.000000      4.500000      0.000000
      0.000000      5.000000      0.000000
      0.000000      5.500000      0.000000
      0.000000      6.000000      0.000000
      0.000000      6.500000      0.000000
      0.000000      7.000000      0.000000
      0.000000      7.500000      0.000000
      0.000000      8.000000      0.000000
      0.000000      8.500000      0.000000
      0.000000      9.000000      0.000000
      0.000000      9.500000      0.000000
      0.000000     10.000000      0.000000
      0.000000     10.500000      0.000000
      0.000000     11.000000      0.000000
      0.000000     11.500000      0.000000
      0.000000     12.000000      0.000000
      0.000000     12.500000      0.000000
      0.000000     13.000000      0.000000
      0.000000     13.500000      0.000000
      0.000000     14.000000      0.000000
      0.000000     14.500000      0.000000
      0.000000     15.000000      0.000000
      0.000000     15.500000      0.000000
      0.000000     16.000000      0.000000
      0.000000     16.500000      0.000000
      0.000000     17.000000      0.000000
      0.000000     17.500000      0.000000
      0.000000     18.000000      0.000000
      0.000000     18.500000      0.000000
      0.000000     19.000000      0.000000
      0.000000     19.500000      0.000000
      0.000000     20.000000      0.000000
      0.000000     20.500000      0.000000
      0.000000     21.000000      0.000000
      0.000000     21.500000      0.000000
      0.000000     22.000000      0.000000
      0.000000     22.500000      0.000000
      0.000000     23.000000      0.000000
      0.000000     23.500000      0.000000
      0.000000     24.000000      0.000000
      0.000000     24.500000      0.000000
      0.000000     25.000000      0.000000
      0.000000     25.500000      0.000000
      0.000000     26.000000      0.000000
      0.000000     26.500000      0.000000
      0.000000     27.000000      0.000000
      0.000000     27.500000      0.000000
      0.000000     28.000000      0.000000
      0.000000     28.500000      0.000000
      0.000000     29.000000      0.000000
      0.000000     29.500000      0.000000
      0.000000     30.000000      0.000000
      0.000000     30.500000      0.000000
      0.000000     31.000000      0.000000
      0.000000     31.500000      0.000000
      0.500000      0.000000      0.000000
      0.500000      0.500000      0.000000
      0.500000      1.000000      0.000000
      0.500000      1.500000      0.000000
      0.500000      2.000000      0.000000
      0.500000      2.500000      0.000000
      0.500000      3.000000      0.000000
      0.500000      3.500000      0.000000
      0.500000      4.000000      0.000000
      0.500000      4.500000      0.000000
      0.500000      5.000000      0.000000
      0.500000      5.500000      0.000000
      0.500000      6.000000      0.000000
      0.500000      6.500000      0.000000
      0.500000      7.000000      0.000000
      0.500000      7.500000      0.000000
      0.500000      8.000000      0.000000
      0.500000      8.500000      0.000000
      0.500000      9.000000      0.000000
      0.500000      9.500000      0.000000
      0.500000     10.000000      0.000000
      0.500000     10.500000      0.000000
      0.500000     11.000000      0.000000
      0.500000     11.500000      0.000000
      0.500000     12.000000      0.000000
      0.500000     12.500000      0.000000
      0.500000     13.000000      0.000000
      0.500000     13.500000      0.000000
      0.500000     14.000000      0.000000
      0.500000     14.500000      0.000000
      0.500000     15.000000      0.000000
      0.500000     15.500000      0.000000
      0.500000     16.000000      0.000000
      0.500000     16.500000      0.000000
      0.500000     17.000000      0.000000
      0.500000     17.500000      0.000000
      0.500000     18.000000      0.000000
      0.500000     18.500000      0.000000
      0.500000     19.000000      0.000000
      0.500000     19.500000      0.000000
      0.500000     20.000000      0.000000
      0.500000     20.500000      0.000000
      0.500000     21.000000      0.000000
      0.500000     21.500000      0.000000
      0.500000     22.000000      0.000000
      0.500000     22.500000      0.000000
      0.500000     23.000000      0.000000
      0.500000     23.500000      0.000000
      0.500000     24.000000      0.000000
      0.500000     24.500000      0.000000
      0.500000     25.000000      0.000000
      0.500000     25.500000      0.000000
      0.500000     26.000000      0.000000
      0.500000     26.500000      0.000000
      0.500000     27.000000      0.000000
      0.500000     27.500000      0.000000
      0.500000     28.000000      0.000000
      0.500000     28.500000      0.000000
      0.500000     29.000000      0.000000
      0.500000     29.500000      0.000000
      0.500000     30.000000      0.000000
      0.500000     30.500000      0.000000
      0.500000     31.000000      0.000000
      0.500000     31.500000      0.000000
      1.000000      0.000000      0.000000
      1.000000      0.500000      0.000000
      1.000000      1.000000      0.000000
      1.000000      1.500000      0.000000
      1.000000      2.000000      0.000000
      1.000000      2.500000      0.000000
      1.000000      3.000000      0.000000
      1.000000      3.500000      0.000000
      1.000000      4.000000      0.000000
      1.000000      4.500000      0.000000
      1.000000      5.000000      0.000000
      1.000000      5.500000      0.000000
      1.000000      6.000000      0.000000
      1.000000      6.500000      0.000000
      1.000000      7.000000      0.000000
      1.000000      7.500000      0.000000
      1.000000      8.000000      0.000000
      1.000000      8.500000      0.000000
      1.000000      9.000000      0.000000
      1.000000      9.500000      0.000000
      1.000000     10.000000      0.000000
      1.000000     10.500000      0.000000
      1.000000     11.000000      0.000000
      1.000000     11.500000      0.000000
      1.000000     12.000000      0.000000
      1.000000     12.500000      0.000000
      1.000000     13.000000      0.000000
      1.000000     13.500000      0.000000
      1.000000     14.000000      0.000000
      1.000000     14.500000      0.000000
      1.000000     15.000000      0.000000
      1.000000     15.500000      0.000000
      1.000000     16.000000      0.000000
      1.000000     16.500000      0.000000
      1.000000     17.000000      0.000000
      1.000000     17.500000      0.000000
      1.000000     18.000000      0.000000
      1.000000     18.500000      0.000000
      1.000000     19.000000      0.000000
      1.000000     19.500000      0.000000
      1.000000     20.000000      0.000000
      1.000000     20.500000      0.000000
      1.000000     21.000000      0.000000
      1.000000     21.500000      0.000000
      1.000000     22.000000      0.000000
      1.000000     22.500000      0.000000
      1.000000     23.000000      0.000000
      1.000000     23.500000      0.000000
      1.000000     24.000000      0.000000
      1.000000     24.500000      0.000000
      1.000000     25.000000      0.000000
      1.000000     25.500000      0.000000
      1.000000     26.000000      0.000000
      1.000000     26.500000      0.000000
      1.000000     27.000000      0.000000
      1.000000     27.500000      0.000000
      1.000000     28.000000      0.000000
      1.000000     28.500000      0.000000
      1.000000     29.000000      0.000000
      1.000000     29.500000      0.000000
      1.000000     30.000000      0.000000
      1.000000     30.500000      0.000000
      1.000000     31.000000      0.000000
      1.000000     31.500000      0.000000
      1.500000      0.000000      0.000000
      1.500000      0.500000      0.000000
      1.500000      1.000000      0.000000
      1.500000      1.500000      0.000000
      1.500000      2.000000      0.000000
      1.500000      2.500000      0.000000
      1.500000      3.000000      0.000000
      1.500000      3.500000      0.000000
      1.500000      4.000000      0.000000
      1.500000      4.500000      0.000000
      1.500000      5.000000      0.000000
      1.500000      5.500000      0.000000
      1.500000      6.000000      0.000000
      1.500000      6.500000      0.000000
      1.500000      7.000000      0.000000
      1.500000      7.500000      0.000000
      1.500000      8.000000      0.000000
      1.500000      8.500000      0.000000
      1.500000      9.000000      0.000000
      1.500000      9.500000      0.000000
      1.500000     10.000000      0.000000
      1.500000     10.500000      0.000000
      1.500000     11.000000      0.000000
      1.500000     11.500000      0.000000
      1.500000     12.000000      0.000000
      1.500000     12.500000      0.000000
      1.500000     13.000000      0.000000
      1.500000     13.500000      0.000000
      1.500000     14.000000      0.000000
      1.500000     14.500000      0.000000
      1.500000     15.000000      0.000000
      1.500000     15.500000      0.000000
      1.500000     16.000000      0.000000
      1.500000     16.500000      0.000000
      1.500000     17.000000      0.000000
      1.500000     17.500000      0.000000
      1.500000     18.000000      0.000000
[...]
POINT_DATA  4096
SCALARS CON float 1
LOOKUP_TABLE default
      0.999800
      0.999800
      0.999800
      0.999800
      0.999800
      0.999800
      0.999800
      0.999800
      0.999800
      0.999800
      0.999800
      0.999800
      0.999800
      0.999800
      0.999800
      0.999800
      0.999800
      0.999800
      0.999800
      0.999800
      0.999800
      0.999800
      0.999800
      0.999800
      0.999800
      0.999800
      0.999800
      0.999800
      0.999800
      0.999800
      0.999800
      0.999800
      0.999800
      0.999800
      0.999800
      0.999800
      0.999800
      0.999800
      0.999800
      0.999800
      0.999800
      0.999800
      0.999800
      0.999800
      0.999800
      0.999800
      0.999800
      0.999800
      0.999800
      0.999800
      0.999800
      0.999800
      0.999800
      0.999800
      0.999800
      0.999800
      0.999800
      0.999800
      0.999800
      0.999800
      0.999800
      0.999800
      0.999800
      0.999800
      0.999800
      0.999800
      0.999800
      0.999800
      0.999800
      0.999800
      0.999800
      0.999800
      0.999800
      0.999800
      0.999800
      0.999800
      0.999800
      0.999800
      0.999800
      0.999800
      0.999800
      0.999800
      0.999800
      0.999800
      0.999800
      0.999800
      0.999800
      0.999800
      0.999800
      0.999800
      0.999800
      0.999787
      0.999769
      0.999775
      0.999796
      0.999800
      0.999796
      0.999775
      0.999769
      0.999787
      0.999800
      0.999800
      0.999800
      0.999800
      0.999800
      0.999800
      0.999800
      0.999800
      0.999800
      0.999800
      0.999800
      0.999800
      0.999800
      0.999800
      0.999800
      0.999800
      0.999800
      0.999800
      0.999800
      0.999800
      0.999800
      0.999800
      0.999800
      0.999800
      0.999800
      0.999800
      0.999800
      0.999800
      0.999800
      0.999800
      0.999800
      0.999800
      0.999800
      0.999800
      0.999800
      0.999800
      0.999800
      0.999800
      0.999800
      0.999800
      0.999800
      0.999800
      0.999800
      0.999800
      0.999800
      0.999800
      0.999800
      0.999800
      0.999800
      0.999800
      0.999800
      0.999800
      0.999800
      0.999800
      0.999800
      0.999800
      0.999800
      0.999800
      0.999800
      0.999800
      0.999800
      0.999800
      0.999800
      0.999800
      0.999800
      0.999800
      0.999800
      0.999800
      0.999800
      0.999800
      0.999800
      0.999800
      0.999800
      0.999800
      0.999800
      0.999800
      0.999800
      0.999800
      0.999800
      0.999800
      0.999800
      0.999800
      0.999800
      0.999800
      0.999800
      0.999800
      0.999800
      0.999800
      0.999800
      0.999800
      0.999800
      0.999800
      0.999800
      0.999800
      0.999800
      0.999800
      0.999800
      0.999800
      0.999800
      0.999800
      0.999800
      0.999800
      0.999800
      0.999800
      0.999800
      0.999800
      0.999800
      0.999800
      0.999800
      0.999800
      0.999800
      0.999800
      0.999800
      0.999800
      0.999800
      0.999800
      0.999800
      0.999800
      0.999800
      0.999777
      0.999757
      0.999764
      0.999788
      0.999800
      0.999788
      0.999764
      0.999757
      0.999777
      0.999800
      0.999800
      0.999800
      0.999800
      0.999800
      0.999800
      0.999800
      0.999800
      0.999800
      0.999800
      0.999800
      0.999800
      0.999800
      0.999800
      0.999800
      0.999800
      0.999800
      0.999800
      0.999800
      0.999800
      0.999800
      0.999800
      0.999800
      0.999800
      0.999800
      0.999800
      0.999800
      0.999800
      0.999800
      0.999800
      0.999800
      0.999800
      0.999800
      0.999800
      0.999800
      0.999800
      0.999800
      0.999800
      0.999800
      0.999800
      0.999800
      0.999800
      0.999800
      0.999800
      0.999800
      0.999800
      0.999800
      0.999800
      0.999800
      0.999800
      0.999800
      0.999800
      0.999800
      0.999800
      0.999800
      0.999800
      0.999800
      0.999800
      0.999800
      0.999800
      0.999800
      0.999800
      0.999800
      0.999800
      0.999800
      0.999800
      0.999800
      0.999800
      0.999800
      0.999800
      0.999800
      0.999800
      0.999800
      0.999800
      0.999800
      0.999800
      0.999800
      0.999800
      0.999800
      0.999800
      0.999800
      0.999800
      0.999800
      0.999800
      0.999800
      0.999800
      0.999800
      0.999800
      0.999800
      0.999800
      0.999800
      0.999800
      0.999800
      0.999800
      0.999800
      0.999800
      0.999800
      0.999800
      0.999800
      0.999800
      0.999800
      0.999800
      0.999800
      0.999800
      0.999800
      0.999800
      0.999800
      0.999800
      0.999800
      0.999800
      0.999800
      0.999800
      0.999800
      0.999800
      0.999800
      0.999800
      0.999800
      0.999800
      0.999800
      0.999757
      0.999734
      0.999742
      0.999772
      0.999794
      0.999772
      0.999742
      0.999734
      0.999757
      0.999800
      0.999800
      0.999800
      0.999800
      0.999800
      0.999800
      0.999800
      0.999800
      0.999800
      0.999800
      0.999800
      0.999800
      0.999800
      0.999800
      0.999800
      0.999800
      0.999800
      0.999800
      0.999800
      0.999800
      0.999800
      0.999800
      0.999800
      0.999800
      0.999800
      0.999800
      0.999800
      0.999800
      0.999800
      0.999800
      0.999800
      0.999800
      0.999800
      0.999800
      0.999800
      0.999800
      0.999800
      0.999800
      0.999800
      0.999800
      0.999800
      0.999800
      0.999800
      0.999800
      0.999800
      0.999800
      0.999800
      0.999800
      0.999800
      0.999800
      0.999800
      0.999800
      0.999800
      0.999800
      0.999800
      0.999800
      0.999800
      0.999800
      0.999800
      0.999800
      0.999800
      0.999800
      0.999800
      0.999800
      0.999800
      0.999800
      0.999800
      0.999800
      0.999800
      0.999800
      0.999800
      0.999800
      0.999800
      0.999800
      0.999800
      0.999800
      0.999800
      0.999800
      0.999800
      0.999800
      0.999800
      0.999800
      0.999800
      0.999800
      0.999800
      0.999800
      0.999800
      0.999800
      0.999800
      0.999800
      0.999800
      0.999800
      0.999800
      0.999800
      0.999800
      0.999800
      0.999800
      0.999800
      0.999800
      0.999800
      0.999800
      0.999800
      0.999800
      0.999800
      0.999800
      0.999800
      0.999800
      0.999800
      0.999800
      0.999800
      0.999800
      0.999800
      0.999800
      0.999800
      0.999800
      0.999800
      0.999800
      0.999800
      0.999800
      0.999722
      0.999691
      0.999703
      0.999743
      0.999771
      0.999743
      0.999703
      0.999691
      0.999722
      0.999800
      0.999800
      0.999800
      0.999800
      0.999800
      0.999800
      0.999800
      0.999800
      0.999800
      0.999800
      0.999800
      0.999800
      0.999800
      0.999800
      0.999800
      0.999800
      0.999800
      0.999800
      0.999800
      0.999800
      0.999800
      0.999800
      0.999800
      0.999800
      0.999800
      0.999800
      0.999800
      0.999800
      0.999800
      0.999800
      0.999800
      0.999800
      0.999800
      0.999800
      0.999800
      0.999800
      0.999800
      0.999800
      0.999800
      0.999800
      0.999800
      0.999800
      0.999800
      0.999800
      0.999800
      0.999800
      0.999800
      0.999800
      0.999800
      0.999800
      0.999800
      0.999800
      0.999800
      0.999800
      0.999800
      0.999800
      0.999800
      0.999800
      0.999800
      0.999800
      0.999800
      0.999800
      0.999800
      0.999800
      0.999800
      0.999800
      0.999800
      0.999800
      0.999800
      0.999800
      0.999800
      0.999800
      0.999800
      0.999800
      0.999800
      0.999800
      0.999800
      0.999800
      0.999800
      0.999800
      0.999800
      0.999800
      0.999800
      0.999800
      0.999800
      0.999800
      0.999800
      0.999800
      0.999800
      0.999800
      0.999800
      0.999800
      0.999800
      0.999800
      0.999800
      0.999800
      0.999800
      0.999800
      0.999800
      0.999800
      0.999800
      0.999800
      0.999800
      0.999800
      0.999800
      0.999800
      0.999800
      0.999800
      0.999800
      0.999800
      0.999800
      0.999800
      0.999800
      0.999800
      0.999800
      0.999800
      0.999800
      0.999800
      0.999777
      0.999653
      0.999613
      0.999633
      0.999691
      0.999731
      0.999691
      0.999633
      0.999613
      0.999653
      0.999777
      0.999800
      0.999800
      0.999800
      0.999800
      0.999800
      0.999800
      0.999800
      0.999800
      0.999800
      0.999800
      0.999800
      0.999800
      0.999800
      0.999800
      0.999800
      0.999800
      0.999800
      0.999800
      0.999800
      0.999800
      0.999800
      0.999800
      0.999800
      0.999800
      0.999800
      0.999800
      0.999800
      0.999800
      0.999800
      0.999800
      0.999800
      0.999800
      0.999800
      0.999800
      0.999800
      0.999800
      0.999800
      0.999800
      0.999800
      0.999800
      0.999800
      0.999800
      0.999800
      0.999800
      0.999800
      0.999800
      0.999800
      0.999800
      0.999800
      0.999800
      0.999800
      0.999800
      0.999796
      0.999800
      0.999800
      0.999800
      0.999800
      0.999800
      0.999800
      0.999800
      0.999800
      0.999800
      0.999800
      0.999800
      0.999796
      0.999800
      0.999800
      0.999800
      0.999800
      0.999800
      0.999800
      0.999800
      0.999800
      0.999800
      0.999800
      0.999800
      0.999800
      0.999800
      0.999800
      0.999800
      0.999800
      0.999800
      0.999800
      0.999800
      0.999800
      0.999800
      0.999800
      0.999800
      0.999800
      0.999800
      0.999800
      0.999800
      0.999800
      0.999800
      0.999800
      0.999800
      0.999800
      0.999800
      0.999800
      0.999800
      0.999800
      0.999800
      0.999800
      0.999800
      0.999800
      0.999800
      0.999800
      0.999800
      0.999800
      0.999800
      0.999800
      0.999800
      0.999800
      0.999800
      0.999800
      0.999800
      0.999800
      0.999697
      0.999510
      0.999458
      0.999497
      0.999596
      0.999664
      0.999596
      0.999497
      0.999458
      0.999510
      0.999697
      0.999800
      0.999800
      0.999800
      0.999800
      0.999800
      0.999800
      0.999800
      0.999800
      0.999800
      0.999800
      0.999800
      0.999800
      0.999800
      0.999800
      0.999800
      0.999800
      0.999800
      0.999800
      0.999800
      0.999800
      0.999800
      0.999800
      0.999800
      0.999800
      0.999800
      0.999800
      0.999800
      0.999800
      0.999800
      0.999800
      0.999800
      0.999800
      0.999800
      0.999800
      0.999800
      0.999800
      0.999800
      0.999800
      0.999800
      0.999800
      0.999800
      0.999800
      0.999800
      0.999800
      0.999800
      0.999800
      0.999800
      0.999800
      0.999800
      0.999800
      0.999800
      0.999762
      0.999757
      0.999800
      0.999800
      0.999800
      0.999800
      0.999800
      0.999800
      0.999800
      0.999800
      0.999800
      0.999800
      0.999800
      0.999757
      0.999762
      0.999800
      0.999800
      0.999800
      0.999800
      0.999800
      0.999800
      0.999800
      0.999800
      0.999800
      0.999800
      0.999800
      0.999800
      0.999800
      0.999800
      0.999800
      0.999800
      0.999800
      0.999800
      0.999800
      0.999800
      0.999800
      0.999800
      0.999800
      0.999800
      0.999800
      0.999800
      0.999800
      0.999800
      0.999800
      0.999800
      0.999800
      0.999800
      0.999800
      0.999800
      0.999800
      0.999800
      0.999800
      0.999800
      0.999800
      0.999800
      0.999800
      0.999800
      0.999800
      0.999800
      0.999800
      0.999800
      0.999800
      0.999800
      0.999800
      0.999800
      0.999800
      0.999505
      0.999190
      0.999135
      0.999240
      0.999414
      0.999519
      0.999414
      0.999240
      0.999135
      0.999190
      0.999505
      0.999800
      0.999800
      0.999800
      0.999800
      0.999800
      0.999800
      0.999800
      0.999800
      0.999800
      0.999800
      0.999800
      0.999800
      0.999800
      0.999800
      0.999800
      0.999800
      0.999800
      0.999800
      0.999800
      0.999800
      0.999800
      0.999800
      0.999800
      0.999800
      0.999800
      0.999800
      0.999800
      0.999800
      0.999800
      0.999800
      0.999800
      0.999800
      0.999800
      0.999800
      0.999800
      0.999800
      0.999800
      0.999800
      0.999800
      0.999800
      0.999800
      0.999800
      0.999800
      0.999800
      0.999800
      0.999800
      0.999800
      0.999800
      0.999800
      0.999800
      0.999800
      0.999633
      0.999602
      0.999801
      0.999801
      0.999802
      0.999750
      0.999234
      0.998883
      0.999234
      0.999750
      0.999802
      0.999801
      0.999801
      0.999602
      0.999633
      0.999800
      0.999800
      0.999800
      0.999800
      0.999800
      0.999800
      0.999800
      0.999800
      0.999800
      0.999800
      0.999800
      0.999800
      0.999800
      0.999800
      0.999800
      0.999800
      0.999800
      0.999800
      0.999800
      0.999800
      0.999800
      0.999800
      0.999800
      0.999800
      0.999800
      0.999800
      0.999800
      0.999800
      0.999800
      0.999800
      0.999800
      0.999800
      0.999800
      0.999800
      0.999800
      0.999800
      0.999800
      0.999800
      0.999800
      0.999800
      0.999800
      0.999800
      0.999800
      0.999800
      0.999800
      0.999800
      0.999800
      0.999800
      0.999622
      0.999520
      0.998220
      0.995627
      0.993526
      0.992235
      0.990595
      0.987988
      0.986453
      0.987988
      0.990595
      0.992235
      0.993526
      0.995627
      0.998220
      0.999520
      0.999622
      0.999800
      0.999800
      0.999800
      0.999800
      0.999800
      0.999800
      0.999800
      0.999800
      0.999800
      0.999800
      0.999800
      0.999800
      0.999800
      0.999800
      0.999800
      0.999800
      0.999800
      0.999800
      0.999800
      0.999800
      0.999800
      0.999800
      0.999800
      0.999800
      0.999800
      0.999800
      0.999800
      0.999800
      0.999800
      0.999800
      0.999800
      0.999800
      0.999800
      0.999800
      0.999800
      0.999800
      0.999800
      0.999800
      0.999800
      0.999800
      0.999800
      0.999800
      0.999800
      0.999800
      0.999800
      0.999800
      0.999301
      0.997832
      0.992871
      0.983568
      0.969577
      0.955109
      0.944192
      0.930632
      0.909659
      0.897360
      0.909659
      0.930632
      0.944192
      0.955109
      0.969577
      0.983568
      0.992871
      0.997832
      0.999301
      0.999800
      0.999800
      0.999800
      0.999800
      0.999800
      0.999800
      0.999800
      0.999800
      0.999800
      0.999800
      0.999800
      0.999800
      0.999800
      0.999800
      0.999800
      0.999800
      0.999800
      0.999800
      0.999800
      0.999800
      0.999800
      0.999800
      0.999800
      0.999800
      0.999800
      0.999800
      0.999800
      0.999800
      0.999800
      0.999800
      0.999800
      0.999800
      0.999800
      0.999800
      0.999800
      0.999800
      0.999800
      0.999800
      0.999800
      0.999800
      0.999800
      0.999800
      0.999800
      0.999788
      0.998900
      0.995412
      0.983225
      0.952347
      0.887628
      0.803673
      0.743898
      0.714661
      0.691706
      0.665478
      0.653735
      0.665478
      0.691706
      0.714661
      0.743898
      0.803673
      0.887628
      0.952347
      0.983225
      0.995412
      0.998900
      0.999788
      0.999800
      0.999800
      0.999800
      0.999800
      0.999800
      0.999800
      0.999800
      0.999800
      0.999800
      0.999800
      0.999800
      0.999800
      0.999800
      0.999800
      0.999800
      0.999800
      0.999800
      0.999800
      0.999800
      0.999800
      0.999800
      0.999800
      0.999800
      0.999800
      0.999800
      0.999800
      0.999800
      0.999800
      0.999800
      0.999800
      0.999800
      0.999800
      0.999800
      0.999800
      0.999800
      0.999800
      0.999800
      0.999800
      0.999800
      0.999800
      0.999726
      0.998763
      0.993658
      0.971794
      0.903912
      0.774989
      0.654534
      0.634695
      0.679352
      0.710736
      0.734064
      0.763275
      0.779857
      0.763275
      0.734064
      0.710736
      0.679352
      0.634695
      0.654534
      0.774989
      0.903912
      0.971794
      0.993658
      0.998763
      0.999726
      0.999800
      0.999800
      0.999800
      0.999800
      0.999800
      0.999800
      0.999800
      0.999800
      0.999800
      0.999800
      0.999800
      0.999800
      0.999800
      0.999800
      0.999800
      0.999800
      0.999800
      0.999800
      0.999800
      0.999800
      0.999800
      0.999800
      0.999800
      0.999800
      0.999800
      0.999800
      0.999800
      0.999800
      0.999800
      0.999800
      0.999800
      0.999800
      0.999800
      0.999800
      0.999800
      0.999800
      0.999800
      0.999800
      0.999726
      0.998710
      0.993270
      0.966872
      0.873514
      0.697145
      0.635225
      0.747410
      0.861093
      0.920552
      0.942081
      0.952277
      0.961398
      0.965892
      0.961398
      0.952277
      0.942081
      0.920552
      0.861093
      0.747410
      0.635225
      0.697145
      0.873514
      0.966872
      0.993270
      0.998710
      0.999726
      0.999800
      0.999800
      0.999800
      0.999800
      0.999800
      0.999800
      0.999800
      0.999800
      0.999800
      0.999800
      0.999800
      0.999800
      0.999800
      0.999800
      0.999800
      0.999800
      0.999800
      0.999800
      0.999800
      0.999800
      0.999800
      0.999800
      0.999800
      0.999800
      0.999800
      0.999800
      0.999800
      0.999800
      0.999800
      0.999800
      0.999800
      0.999800
      0.999800
      0.999800
      0.999800
      0.999800
      0.999788
      0.998763
      0.993270
      0.966135
      0.866320
      0.675863
      0.663624
      0.836578
      0.941327
      0.978082
      0.988823
      0.992000
      0.993110
      0.994317
      0.994824
      0.994317
      0.993110
      0.992000
      0.988823
      0.978082
      0.941327
      0.836578
      0.663624
      0.675863
      0.866320
      0.966135
      0.993270
      0.998763
      0.999788
      0.999800
      0.999800
      0.999800