# vtk DataFile Version 2.0
time_10.vtk
ASCII
DATASET STRUCTURED_GRID
DIMENSIONS      64     64      1
POINTS    4096 float
      0.000000      0.000000      0.000000
      0.000000      0.500000      0.000000
      0.000000      1.000000      0.000000
      0.000000      1.500000      0.000000
      0.000000      2.000000      0.000000
      0.000000      2.500000      0.000000
      0.000000      3.000000      0.000000
      0.000000      3.500000      0.000000
      0.000000      4.000000      0.000000
      0.000000      4.500000      0.000000
      0.000000      5.000000      0.000000
      0.000000      5.500000      0.000000
      0.000000      6.000000      0.000000
      0.000000      6.500000      0.000000
      0.000000      7.000000      0.000000
      0.000000      7.500000      0.000000
      0.000000      8.000000      0.000000
      0.000000      8.500000      0.000000
      0.000000      9.000000      0.000000
      0.000000      9.500000      0.000000
      0.000000     10.000000      0.000000
      0.000000     10.500000      0.000000
      0.000000     11.000000      0.000000
      0.000000     11.500000      0.000000
      0.000000     12.000000      0.000000
      0.000000     12.500000      0.000000
      0.000000     13.000000      0.000000
      0.000000     13.500000      0.000000
      0.000000     14.000000      0.000000
      0.000000     14.500000      0.000000
      0.000000     15.000000      0.000000
      0.000000     15.500000      0.000000
      0.000000     16.000000      0.000000
      0.000000     16.500000      0.000000
      0.000000     17.000000      0.000000
      0.000000     17.500000      0.000000
      0.000000     18.000000      0.000000
      0.000000     18.500000      0.000000
      0.000000     19.000000      0.000000
      0.000000     19.500000      0.000000
      0.000000     20.000000      0.000000
      0.000000     20.500000      0.000000
      0.000000     21.000000      0.000000
      0.000000     21.500000      0.000000
      0.000000     22.000000      0.000000
      0.000000     22.500000      0.000000
      0.000000     23.000000      0.000000
      0.000000     23.500000      0.000000
      0.000000     24.000000      0.000000
      0.000000     24.500000      0.000000
      0.000000     25.000000      0.000000
      0.000000     25.500000      0.000000
      0.000000     26.000000      0.000000
      0.000000     26.500000      0.000000
      0.000000     27.000000      0.000000
      0.000000     27.500000      0.000000
      0.000000     28.000000      0.000000
      0.000000     28.500000      0.000000
      0.000000     29.000000      0.000000
      0.000000     29.500000      0.000000
      0.000000     30.000000      0.000000
      0.000000     30.500000      0.000000
      0.000000     31.000000      0.000000
      0.000000     31.500000      0.000000
      0.500000      0.000000      0.000000
      0.500000      0.500000      0.000000
      0.500000      1.000000      0.000000
      0.500000      1.500000      0.000000
      0.500000      2.000000      0.000000
      0.500000      2.500000      0.000000
      0.500000      3.000000      0.000000
      0.500000      3.500000      0.000000
      0.500000      4.000000      0.000000
      0.500000      4.500000      0.000000
      0.500000      5.000000      0.000000
      0.500000      5.500000      0.000000
      0.500000      6.000000      0.000000
      0.500000      6.500000      0.000000
      0.500000      7.000000      0.000000
      0.500000      7.500000      0.000000
      0.500000      8.000000      0.000000
      0.500000      8.500000      0.000000
      0.500000      9.000000      0.000000
      0.500000      9.500000      0.000000
      0.500000     10.000000      0.000000
      0.500000     10.500000      0.000000
      0.500000     11.000000      0.000000
      0.500000     11.500000      0.000000
      0.500000     12.000000      0.000000
      0.500000     12.500000      0.000000
      0.500000     13.000000      0.000000
      0.500000     13.500000      0.000000
      0.500000     14.000000      0.000000
      0.500000     14.500000      0.000000
      0.500000     15.000000      0.000000
      0.500000     15.500000      0.000000
      0.500000     16.000000      0.000000
      0.500000     16.500000      0.000000
      0.500000     17.000000      0.000000
      0.500000     17.500000      0.000000
      0.500000     18.000000      0.000000
      0.500000     18.500000      0.000000
      0.500000     19.000000      0.000000
      0.500000     19.500000      0.000000
      0.500000     20.000000      0.000000
      0.500000     20.500000      0.000000
      0.500000     21.000000      0.000000
      0.500000     21.500000      0.000000
      0.500000     22.000000      0.000000
      0.500000     22.500000      0.000000
      0.500000     23.000000      0.000000
      0.500000     23.500000      0.000000
      0.500000     24.000000      0.000000
      0.500000     24.500000      0.000000
      0.500000     25.000000      0.000000
      0.500000     25.500000      0.000000
      0.500000     26.000000      0.000000
      0.500000     26.500000      0.000000
      0.500000     27.000000      0.000000
      0.500000     27.500000      0.000000
      0.500000     28.000000      0.000000
      0.500000     28.500000      0.000000
      0.500000     29.000000      0.000000
      0.500000     29.500000      0.000000
      0.500000     30.000000      0.000000
      0.500000     30.500000      0.000000
      0.500000     31.000000      0.000000
      0.500000     31.500000      0.000000
      1.000000      0.000000      0.000000
      1.000000      0.500000      0.000000
      1.000000      1.000000      0.000000
      1.000000      1.500000      0.000000
      1.000000      2.000000      0.000000
      1.000000      2.500000      0.000000
      1.000000      3.000000      0.000000
      1.000000      3.500000      0.000000
      1.000000      4.000000      0.000000
      1.000000      4.500000      0.000000
      1.000000      5.000000      0.000000
      1.000000      5.500000      0.000000
      1.000000      6.000000      0.000000
      1.000000      6.500000      0.000000
      1.000000      7.000000      0.000000
      1.000000      7.500000      0.000000
      1.000000      8.000000      0.000000
      1.000000      8.500000      0.000000
      1.000000      9.000000      0.000000
      1.000000      9.500000      0.000000
      1.000000     10.000000      0.000000
      1.000000     10.500000      0.000000
      1.000000     11.000000      0.000000
      1.000000     11.500000      0.000000
      1.000000     12.000000      0.000000
      1.000000     12.500000      0.000000
      1.000000     13.000000      0.000000
      1.000000     13.500000      0.000000
      1.000000     14.000000      0.000000
      1.000000     14.500000      0.000000
      1.000000     15.000000      0.000000
      1.000000     15.500000      0.000000
      1.000000     16.000000      0.000000
      1.000000     16.500000      0.000000
      1.000000     17.000000      0.000000
      1.000000     17.500000      0.000000
      1.000000     18.000000      0.000000
      1.000000     18.500000      0.000000
      1.000000     19.000000      0.000000
      1.000000     19.500000      0.000000
      1.000000     20.000000      0.000000
      1.000000     20.500000      0.000000
      1.000000     21.000000      0.000000
      1.000000     21.500000      0.000000
      1.000000     22.000000      0.000000
      1.000000     22.500000      0.000000
      1.000000     23.000000      0.000000
      1.000000     23.500000      0.000000
      1.000000     24.000000      0.000000
      1.000000     24.500000      0.000000
      1.000000     25.000000      0.000000
      1.000000     25.500000      0.000000
      1.000000     26.000000      0.000000
      1.000000     26.500000      0.000000
      1.000000     27.000000      0.000000
      1.000000     27.500000      0.000000
      1.000000     28.000000      0.000000
      1.000000     28.500000      0.000000
      1.000000     29.000000      0.000000
      1.000000     29.500000      0.000000
      1.000000     30.000000      0.000000
      1.000000     30.500000      0.000000
      1.000000     31.000000      0.000000
      1.000000     31.500000      0.000000
      1.500000      0.000000      0.000000
      1.500000      0.500000      0.000000
      1.500000      1.000000      0.000000
      1.500000      1.500000      0.000000
      1.500000      2.000000      0.000000
      1.500000      2.500000      0.000000
      1.500000      3.000000      0.000000
      1.500000      3.500000      0.000000
      1.500000      4.000000      0.000000
      1.500000      4.500000      0.000000
      1.500000      5.000000      0.000000
      1.500000      5.500000      0.000000
      1.500000      6.000000      0.000000
      1.500000      6.500000      0.000000
      1.500000      7.000000      0.000000
      1.500000      7.500000      0.000000
      1.500000      8.000000      0.000000
      1.500000      8.500000      0.000000
      1.500000      9.000000      0.000000
      1.500000      9.500000      0.000000
      1.500000     10.000000      0.000000
      1.500000     10.500000      0.000000
      1.500000     11.000000      0.000000
      1.500000     11.500000      0.000000
      1.500000     12.000000      0.000000
      1.500000     12.500000      0.000000
      1.500000     13.000000      0.000000
      1.500000     13.500000      0.000000
      1.500000     14.000000      0.000000
      1.500000     14.500000      0.000000
      1.500000     15.000000      0.000000
      1.500000     15.500000      0.000000
      1.500000     16.000000      0.000000
      1.500000     16.500000      0.000000
      1.500000     17.000000      0.000000
      1.500000     17.500000      0.000000
      1.500000     18.000000      0.000000
[...]
POINT_DATA  4096
SCALARS CON float 1
LOOKUP_TABLE default
      0.999800
      0.999800
      0.999800
      0.999800
      0.999800
      0.999800
      0.999800
      0.999800
      0.999800
      0.999800
      0.999800
      0.999800
      0.999800
      0.999800
      0.999800
      0.999800
      0.999800
      0.999653
      0.999800
      0.999800
      0.999633
      0.999800
      0.999614
      0.999800
      0.999530
      0.999523
      0.999800
      0.999800
      0.999800
      0.999800
      0.999800
      0.999531
      0.999800
      0.999800
      0.999800
      0.999800
      0.999800
      0.999523
      0.999530
      0.999800
      0.999614
      0.999800
      0.999633
      0.999800
      0.999800
      0.999653
      0.999800
      0.999800
      0.999800
      0.999800
      0.999800
      0.999800
      0.999800
      0.999800
      0.999800
      0.999800
      0.999800
      0.999800
      0.999800
      0.999800
      0.999800
      0.999800
      0.999800
      0.999800
      0.999800
      0.999800
      0.999800
      0.999800
      0.999800
      0.999800
      0.999800
      0.999800
      0.999800
      0.999800
      0.999800
      0.999800
      0.999800
      0.999800
      0.999800
      0.999800
      0.999800
      0.999800
      0.999613
      0.999606
      0.999800
      0.999624
      0.999800
      0.999594
      0.999800
      0.999800
      0.999499
      0.999444
      0.999457
      0.999440
      0.999511
      0.999800
      0.999511
      0.999440
      0.999457
      0.999444
      0.999499
      0.999800
      0.999800
      0.999594
      0.999800
      0.999624
      0.999800
      0.999606
      0.999613
      0.999800
      0.999800
      0.999800
      0.999800
      0.999800
      0.999800
      0.999800
      0.999800
      0.999800
      0.999800
      0.999800
      0.999800
      0.999800
      0.999800
      0.999800
      0.999800
      0.999800
      0.999800
      0.999800
      0.999800
      0.999800
      0.999800
      0.999800
      0.999800
      0.999800
      0.999800
      0.999800
      0.999800
      0.999800
      0.999800
      0.999800
      0.999800
      0.999800
      0.999800
      0.999800
      0.999800
      0.999650
      0.999800
      0.999800
      0.999626
      0.999800
      0.999605
      0.999800
      0.999515
      0.999508
      0.999800
      0.999800
      0.999800
      0.999800
      0.999800
      0.999511
      0.999800
      0.999800
      0.999800
      0.999800
      0.999800
      0.999508
      0.999515
      0.999800
      0.999605
      0.999800
      0.999626
      0.999800
      0.999800
      0.999650
      0.999800
      0.999800
      0.999800
      0.999800
      0.999800
      0.999800
      0.999800
      0.999800
      0.999800
      0.999800
      0.999800
      0.999800
      0.999800
      0.999800
      0.999800
      0.999800
      0.999800
      0.999800
      0.999800
      0.999800
      0.999800
      0.999800
      0.999800
      0.999800
      0.999800
      0.999800
      0.999800
      0.999800
      0.999800
      0.999800
      0.999800
      0.999800
      0.999800
      0.999800
      0.999800
      0.999800
      0.999605
      0.999597
      0.999800
      0.999613
      0.999800
      0.999578
      0.999800
      0.999800
      0.999469
      0.999410
      0.999424
      0.999406
      0.999484
      0.999800
      0.999484
      0.999406
      0.999424
      0.999410
      0.999469
      0.999800
      0.999800
      0.999578
      0.999800
      0.999613
      0.999800
      0.999597
      0.999605
      0.999800
      0.999800
      0.999800
      0.999800
      0.999800
      0.999800
      0.999800
      0.999800
      0.999800
      0.999800
      0.999800
      0.999800
      0.999800
      0.999800
      0.999800
      0.999800
      0.999800
      0.999800
      0.999800
      0.999800
      0.999800
      0.999800
      0.999800
      0.999800
      0.999800
      0.999800
      0.999800
      0.999800
      0.999800
      0.999800
      0.999800
      0.999800
      0.999800
      0.999800
      0.999800
      0.999800
      0.999642
      0.999800
      0.999800
      0.999613
      0.999800
      0.999587
      0.999800
      0.999481
      0.999474
      0.999800
      0.999800
      0.999800
      0.999800
      0.999800
      0.999466
      0.999800
      0.999800
      0.999800
      0.999800
      0.999800
      0.999474
      0.999481
      0.999800
      0.999587
      0.999800
      0.999613
      0.999800
      0.999800
      0.999642
      0.999800
      0.999800
      0.999800
      0.999800
      0.999800
      0.999800
      0.999800
      0.999800
      0.999800
      0.999800
      0.999800
      0.999800
      0.999800
      0.999800
      0.999800
      0.999800
      0.999800
      0.999800
      0.999800
      0.999800
      0.999800
      0.999800
      0.999800
      0.999800
      0.999800
      0.999800
      0.999800
      0.999800
      0.999800
      0.999800
      0.999800
      0.999800
      0.999800
      0.999800
      0.999800
      0.999800
      0.999590
      0.999580
      0.999800
      0.999593
      0.999800
      0.999548
      0.999800
      0.999800
      0.999412
      0.999343
      0.999361
      0.999339
      0.999430
      0.999800
      0.999430
      0.999339
      0.999361
      0.999343
      0.999412
      0.999800
      0.999800
      0.999548
      0.999800
      0.999593
      0.999800
      0.999580
      0.999590
      0.999800
      0.999800
      0.999800
      0.999800
      0.999800
      0.999800
      0.999800
      0.999800
      0.999800
      0.999800
      0.999800
      0.999800
      0.999800
      0.999800
      0.999800
      0.999800
      0.999800
      0.999800
      0.999800
      0.999800
      0.999800
      0.999800
      0.999800
      0.999800
      0.999800
      0.999800
      0.999800
      0.999800
      0.999800
      0.999800
      0.999800
      0.999800
      0.999800
      0.999800
      0.999800
      0.999800
      0.999631
      0.999800
      0.999800
      0.999591
      0.999800
      0.999555
      0.999800
      0.999420
      0.999414
      0.999800
      0.999800
      0.999800
      0.999800
      0.999800
      0.999380
      0.999800
      0.999800
      0.999800
      0.999800
      0.999800
      0.999414
      0.999420
      0.999800
      0.999555
      0.999800
      0.999591
      0.999800
      0.999800
      0.999631
      0.999800
      0.999800
      0.999800
      0.999800
      0.999800
      0.999800
      0.999800
      0.999800
      0.999800
      0.999800
      0.999800
      0.999800
      0.999800
      0.999800
      0.999800
      0.999800
      0.999800
      0.999800
      0.999800
      0.999800
      0.999800
      0.999800
      0.999800
      0.999800
      0.999800
      0.999800
      0.999800
      0.999800
      0.999800
      0.999800
      0.999800
      0.999800
      0.999800
      0.999800
      0.999800
      0.999800
      0.999566
      0.999552
      0.999800
      0.999560
      0.999800
      0.999496
      0.999800
      0.999800
      0.999309
      0.999219
      0.999242
      0.999212
      0.999333
      0.999800
      0.999333
      0.999212
      0.999242
      0.999219
      0.999309
      0.999800
      0.999800
      0.999496
      0.999800
      0.999560
      0.999800
      0.999552
      0.999566
      0.999800
      0.999800
      0.999800
      0.999800
      0.999800
      0.999800
      0.999800
      0.999800
      0.999800
      0.999800
      0.999800
      0.999800
      0.999800
      0.999800
      0.999800
      0.999800
      0.999800
      0.999800
      0.999800
      0.999800
      0.999800
      0.999800
      0.999800
      0.999800
      0.999800
      0.999800
      0.999800
      0.999800
      0.999800
      0.999800
      0.999800
      0.999800
      0.999800
      0.999800
      0.999800
      0.999800
      0.999614
      0.999800
      0.999800
      0.999556
      0.999800
      0.999502
      0.999800
      0.999314
      0.999310
      0.999800
      0.999800
      0.999800
      0.999800
      0.999800
      0.999181
      0.999800
      0.999800
      0.999800
      0.999800
      0.999800
      0.999310
      0.999314
      0.999800
      0.999502
      0.999800
      0.999556
      0.999800
      0.999800
      0.999614
      0.999800
      0.999800
      0.999800
      0.999800
      0.999800
      0.999800
      0.999800
      0.999800
      0.999800
      0.999800
      0.999800
      0.999800
      0.999800
      0.999800
      0.999800
      0.999800
      0.999800
      0.999800
      0.999800
      0.999800
      0.999800
      0.999800
      0.999800
      0.999800
      0.999800
      0.999800
      0.999800
      0.999800
      0.999800
      0.999800
      0.999800
      0.999800
      0.999800
      0.999800
      0.999800
      0.999800
      0.999531
      0.999510
      0.999800
      0.999506
      0.999800
      0.999407
      0.999800
      0.999800
      0.999070
      0.998941
      0.998974
      0.998932
      0.999113
      0.999800
      0.999113
      0.998932
      0.998974
      0.998941
      0.999070
      0.999800
      0.999800
      0.999407
      0.999800
      0.999506
      0.999800
      0.999510
      0.999531
      0.999800
      0.999800
      0.999800
      0.999800
      0.999800
      0.999800
      0.999800
      0.999800
      0.999800
      0.999800
      0.999800
      0.999800
      0.999800
      0.999800
      0.999800
      0.999800
      0.999800
      0.999800
      0.999800
      0.999800
      0.999800
      0.999800
      0.999800
      0.999800
      0.999800
      0.999800
      0.999800
      0.999800
      0.999800
      0.999800
      0.999800
      0.999800
      0.999800
      0.999800
      0.999800
      0.999800
      0.999589
      0.999800
      0.999800
      0.999500
      0.999800
      0.999413
      0.999800
      0.999071
      0.999073
      0.999800
      0.999800
      0.999800
      0.999800
      0.999800
      0.998744
      0.999800
      0.999800
      0.999800
      0.999800
      0.999800
      0.999073
      0.999071
      0.999800
      0.999413
      0.999800
      0.999500
      0.999800
      0.999800
      0.999589
      0.999800
      0.999800
      0.999800
      0.999800
      0.999800
      0.999800
      0.999800
      0.999800
      0.999800
      0.999800
      0.999800
      0.999800
      0.999800
      0.999800
      0.999800
      0.999800
      0.999800
      0.999800
      0.999800
      0.999800
      0.999800
      0.999800
      0.999800
      0.999800
      0.999800
      0.999800
      0.999800
      0.999800
      0.999800
      0.999800
      0.999800
      0.999800
      0.999800
      0.999800
      0.999800
      0.999800
      0.999478
      0.999445
      0.999800
      0.999418
      0.999800
      0.999214
      0.999800
      0.999800
      0.998567
      0.998363
      0.998418
      0.998347
      0.998648
      0.999800
      0.998648
      0.998347
      0.998418
      0.998363
      0.998567
      0.999800
      0.999800
      0.999214
      0.999800
      0.999418
      0.999800
      0.999445
      0.999478
      0.999800
      0.999800
      0.999800
      0.999800
      0.999800
      0.999800
      0.999800
      0.999800
      0.999800
      0.999800
      0.999800
      0.999800
      0.999800
      0.999800
      0.999800
      0.999800
      0.999800
      0.999800
      0.999800
      0.999800
      0.999800
      0.999800
      0.999800
      0.999800
      0.999800
      0.999800
      0.999800
      0.999800
      0.999800
      0.999800
      0.999800
      0.999800
      0.999800
      0.999800
      0.999800
      0.999800
      0.999556
      0.999800
      0.999800
      0.999409
      0.999800
      0.999225
      0.999800
      0.998557
      0.998581
      0.999800
      0.999800
      0.999800
      0.999800
      0.999800
      0.997600
      0.999800
      0.999800
      0.999800
      0.999800
      0.999800
      0.998581
      0.998557
      0.999800
      0.999225
      0.999800
      0.999409
      0.999800
      0.999800
      0.999556
      0.999800
      0.999800
      0.999800
      0.999800
      0.999800
      0.999800
      0.999800
      0.999800
      0.999800
      0.999800
      0.999800
      0.999800
      0.999800
      0.999800
      0.999800
      0.999800
      0.999800
      0.999800
      0.999800
      0.999800
      0.999800
      0.999800
      0.999800
      0.999800
      0.999800
      0.999800
      0.999800
      0.999800
      0.999800
      0.999800
      0.999800
      0.999800
      0.999800
      0.999800
      0.999800
      0.999800
      0.999395
      0.999342
      0.999800
      0.999233
      0.999800
      0.998792
      0.999800
      0.999800
      0.997264
      0.996869
      0.996984
      0.996831
      0.997475
      0.999800
      0.997475
      0.996831
      0.996984
      0.996869
      0.997264
      0.999800
      0.999800
      0.998792
      0.999800
      0.999233
      0.999800
      0.999342
      0.999395
      0.999800
      0.999800
      0.999800
      0.999800
      0.999800
      0.999800
      0.999800
      0.999800
      0.999800
      0.999800
      0.999800
      0.999800
      0.999800
      0.999800
      0.999800
      0.999800
      0.999800
      0.999800
      0.999800
      0.999800
      0.999800
      0.999800
      0.999800
      0.999800
      0.999800
      0.999800
      0.999800
      0.999800
      0.999800
      0.999800
      0.999800
      0.999800
      0.999800
      0.999800
      0.999800
      0.999799
      0.999508
      0.999800
      0.999800
      0.999219
      0.999800
      0.998811
      0.999800
      0.997220
      0.997343
      0.999800
      0.999800
      0.999800
      0.999800
      0.999800
      0.992887
      0.999800
      0.999800
      0.999800
      0.999800
      0.999800
      0.997343
      0.997220
      0.999800
      0.998811
      0.999800
      0.999219
      0.999800
      0.999800
      0.999508
      0.999799
      0.999800
      0.999800
      0.999800
      0.999800
      0.999800
      0.999800
      0.999800
      0.999800
      0.999800
      0.999800
      0.999800
      0.999800
      0.999800
      0.999800
      0.999800
      0.999800
      0.999800
      0.999800
      0.999800
      0.999800
      0.999800
      0.999800
      0.999800
      0.999800
      0.999800
      0.999800
      0.999800
      0.999800
      0.999800
      0.999800
      0.999800
      0.999800
      0.999800
      0.999800
      0.999800
      0.999253
      0.999117
      0.999800
      0.998824
      0.999800
      0.997703
      0.999800
      0.999800
      0.991982
      0.990828
      0.991229
      0.990658
      0.993138
      0.999800
      0.993138
      0.990658
      0.991229
      0.990828
      0.991982
      0.999800
      0.999800
      0.997703
      0.999800
      0.998824
      0.999800
      0.999117
      0.999253
      0.999800
      0.999800
      0.999800
      0.999800
      0.999800
      0.999800
      0.999800
      0.999800
      0.999800
      0.999800
      0.999800
      0.999800
      0.999800
      0.999800
      0.999800
      0.999800
      0.999800
      0.999800
      0.999800
      0.999800
      0.999800
      0.999800
      0.999800
      0.999800
      0.999800
      0.999800
      0.999800
      0.999800
      0.999800
      0.999800
      0.999800
      0.999800
      0.999800
      0.999799
      0.999800
      0.999766
      0.999469
      0.999800
      0.999800
      0.998761
      0.999800
      0.997693
      0.999800
      0.991630
      0.992842
      0.999800
      0.999800
      0.999800
      0.999800
      0.999075
      0.899957
      0.999075
      0.999800
      0.999800
      0.999800
      0.999800
      0.992842
      0.991630
      0.999800
      0.997693
      0.999800
      0.998761
      0.999800
      0.999800
      0.999469
      0.999766
      0.999800
      0.999799
      0.999800
      0.999800
      0.999800
      0.999800
      0.999800
      0.999800
      0.999800
      0.999800
      0.999800
      0.999800
      0.999800
      0.999800
      0.999800
      0.999800
      0.999800
      0.999653
      0.999800
      0.999650
      0.999800
      0.999642
      0.999800
      0.999631
      0.999800
      0.999614
      0.999800
      0.999589
      0.999800
      0.999556
      0.999800
      0.999508
      0.999800
      0.999469
      0.999800
      0.998327
      0.999366
      0.999800
      0.998830
      0.999800
      0.994937
      0.999800
      0.999800
      0.886276
      0.883249
      0.871346
      0.900080
      0.778813
      0.712312
      0.778813
      0.900080
      0.871346
      0.883249
      0.886276
      0.999800
      0.999800
      0.994937
      0.999800
      0.998830
      0.999800
      0.999366
      0.998327
      0.999800
      0.999469
      0.999800
      0.999508
      0.999800
      0.999556
      0.999800
      0.999589
      0.999800
      0.999614
      0.999800
      0.999631
      0.999800
      0.999642
      0.999800
      0.999650
      0.999800
      0.999653
      0.999800
      0.999800
      0.999613
      0.999800
      0.999605
      0.999800
      0.999590
      0.999800
      0.999566
      0.999800
      0.999531
      0.999800
      0.999478
      0.999800
      0.999395
      0.999800
      0.999253
      0.999800
      0.998327
      0.999800
      0.999710
      0.999800
      0.999379
      0.999034
      0.996998
      0.905330
      0.789694
      0.789694
      0.894425
      0.873545
      0.881238
      0.887890
      0.994876
      0.887890
      0.881238
      0.873545
      0.894425
      0.789694
      0.789694
      0.905330
      0.996998
      0.999034
      0.999379
      0.999800
      0.999710
      0.999800
      0.998327
      0.999800
      0.999253
      0.999800
      0.999395
      0.999800
      0.999478
      0.999800
      0.999531
      0.999800
      0.999566
      0.999800
      0.999590
      0.999800
      0.999605
      0.999800
      0.999613
      0.999800
      0.999616
      0.999800
      0.999606
      0.999800
      0.999597
      0.999800
      0.999580
      0.999800
      0.999552
      0.999800
      0.999510
      0.999800
      0.999445
      0.999800
      0.999342
      0.999800
      0.999117
      0.999800
      0.999366
      0.999710
      0.995240
      0.999800
      0.987242
      0.999800
      0.799197
      0.789344
      0.904637
      0.997822
      0.999800
      0.999800
      0.999800
      0.999800
      0.996615
      0.999800
      0.999800
      0.999800
      0.999800
      0.997822
      0.904637
      0.789344
      0.799197
      0.999800
      0.987242
      0.999800
      0.995240
      0.999710
      0.999366
      0.999800
      0.999117
      0.999800
      0.999342
      0.999800
      0.999445
      0.999800
      0.999510
      0.999800
      0.999552
      0.999800
      0.999580
      0.999800
      0.999597
      0.999800
      0.999606
      0.999800
      0.999609
      0.999633
      0.999800
      0.999626
      0.999800
      0.999613
      0.999800
      0.999591
      0.999800
      0.999556
      0.999800
      0.999500
      0.999800
      0.999409
      0.999800
      0.999219
      0.999800
      0.998761
      0.999800
      0.999800
      0.999800
      0.987552
      0.999800
      0.800205
      0.799178
      0.999800
      0.999800
      0.996376
      0.988516
      0.992832
      0.989432
      0.993369
      0.999800
      0.993369
      0.989432
      0.992832
      0.988516
      0.996376
      0.999800
      0.999800
      0.799178
      0.800205
      0.999800
      0.987552
      0.999800
      0.999800
      0.999800
      0.998761
      0.999800
      0.999219