# vtk DataFile Version 2.0
time_10.vtk
ASCII
DATASET STRUCTURED_GRID
DIMENSIONS      64     64      1
POINTS    4096 float
      0.000000      0.000000      0.000000
      0.000000      0.500000      0.000000
      0.000000      1.000000      0.000000
      0.000000      1.500000      0.000000
      0.000000      2.000000      0.000000
      0.000000      2.500000      0.000000
      0.000000      3.000000      0.000000
      0.000000      3.500000      0.000000
      0.000000      4.000000      0.000000
      0.000000      4.500000      0.000000
      0.000000      5.000000      0.000000
      0.000000      5.500000      0.000000
      0.000000      6.000000      0.000000
      0.000000      6.500000      0.000000
      0.000000      7.000000      0.000000
      0.000000      7.500000      0.000000
      0.000000      8.000000      0.000000
      0.000000      8.500000      0.000000
      0.000000      9.000000      0.000000
      0.000000      9.500000      0.000000
      0.000000     10.000000      0.000000
      0.000000     10.500000      0.000000
      0.000000     11.000000      0.000000
      0.000000     11.500000      0.000000
      0.000000     12.000000      0.000000
      0.000000     12.500000      0.000000
      0.000000     13.000000      0.000000
      0.000000     13.500000      0.000000
      0.000000     14.000000      0.000000
      0.000000     14.500000      0.000000
      0.000000     15.000000      0.000000
      0.000000     15.500000      0.000000
      0.000000     16.000000      0.000000
      0.000000     16.500000      0.000000
      0.000000     17.000000      0.000000
      0.000000     17.500000      0.000000
      0.000000     18.000000      0.000000
      0.000000     18.500000      0.000000
      0.000000     19.000000      0.000000
      0.000000     19.500000      0.000000
      0.000000     20.000000      0.000000
      0.000000     20.500000      0.000000
      0.000000     21.000000      0.000000
      0.000000     21.500000      0.000000
      0.000000     22.000000      0.000000
      0.000000     22.500000      0.000000
      0.000000     23.000000      0.000000
      0.000000     23.500000      0.000000
      0.000000     24.000000      0.000000
      0.000000     24.500000      0.000000
      0.000000     25.000000      0.000000
      0.000000     25.500000      0.000000
      0.000000     26.000000      0.000000
      0.000000     26.500000      0.000000
      0.000000     27.000000      0.000000
      0.000000     27.500000      0.000000
      0.000000     28.000000      0.000000
      0.000000     28.500000      0.000000
      0.000000     29.000000      0.000000
      0.000000     29.500000      0.000000
      0.000000     30.000000      0.000000
      0.000000     30.500000      0.000000
      0.000000     31.000000      0.000000
      0.000000     31.500000      0.000000
      0.500000      0.000000      0.000000
      0.500000      0.500000      0.000000
      0.500000      1.000000      0.000000
      0.500000      1.500000      0.000000
      0.500000      2.000000      0.000000
      0.500000      2.500000      0.000000
      0.500000      3.000000      0.000000
      0.500000      3.500000      0.000000
      0.500000      4.000000      0.000000
      0.500000      4.500000      0.000000
      0.500000      5.000000      0.000000
      0.500000      5.500000      0.000000
      0.500000      6.000000      0.000000
      0.500000      6.500000      0.000000
      0.500000      7.000000      0.000000
      0.500000      7.500000      0.000000
      0.500000      8.000000      0.000000
      0.500000      8.500000      0.000000
      0.500000      9.000000      0.000000
      0.500000      9.500000      0.000000
      0.500000     10.000000      0.000000
      0.500000     10.500000      0.000000
      0.500000     11.000000      0.000000
      0.500000     11.500000      0.000000
      0.500000     12.000000      0.000000
      0.500000     12.500000      0.000000
      0.500000     13.000000      0.000000
      0.500000     13.500000      0.000000
      0.500000     14.000000      0.000000
      0.500000     14.500000      0.000000
      0.500000     15.000000      0.000000
      0.500000     15.500000      0.000000
      0.500000     16.000000      0.000000
      0.500000     16.500000      0.000000
      0.500000     17.000000      0.000000
      0.500000     17.500000      0.000000
      0.500000     18.000000      0.000000
      0.500000     18.500000      0.000000
      0.500000     19.000000      0.000000
      0.500000     19.500000      0.000000
      0.500000     20.000000      0.000000
      0.500000     20.500000      0.000000
      0.500000     21.000000      0.000000
      0.500000     21.500000      0.000000
      0.500000     22.000000      0.000000
      0.500000     22.500000      0.000000
      0.500000     23.000000      0.000000
      0.500000     23.500000      0.000000
      0.500000     24.000000      0.000000
      0.500000     24.500000      0.000000
      0.500000     25.000000      0.000000
      0.500000     25.500000      0.000000
      0.500000     26.000000      0.000000
      0.500000     26.500000      0.000000
      0.500000     27.000000      0.000000
      0.500000     27.500000      0.000000
      0.500000     28.000000      0.000000
      0.500000     28.500000      0.000000
      0.500000     29.000000      0.000000
      0.500000     29.500000      0.000000
      0.500000     30.000000      0.000000
      0.500000     30.500000      0.000000
      0.500000     31.000000      0.000000
      0.500000     31.500000      0.000000
      1.000000      0.000000      0.000000
      1.000000      0.500000      0.000000
      1.000000      1.000000      0.000000
      1.000000      1.500000      0.000000
      1.000000      2.000000      0.000000
      1.000000      2.500000      0.000000
      1.000000      3.000000      0.000000
      1.000000      3.500000      0.000000
      1.000000      4.000000      0.000000
      1.000000      4.500000      0.000000
      1.000000      5.000000      0.000000
      1.000000      5.500000      0.000000
      1.000000      6.000000      0.000000
      1.000000      6.500000      0.000000
      1.000000      7.000000      0.000000
      1.000000      7.500000      0.000000
      1.000000      8.000000      0.000000
      1.000000      8.500000      0.000000
      1.000000      9.000000      0.000000
      1.000000      9.500000      0.000000
      1.000000     10.000000      0.000000
      1.000000     10.500000      0.000000
      1.000000     11.000000      0.000000
      1.000000     11.500000      0.000000
      1.000000     12.000000      0.000000
      1.000000     12.500000      0.000000
      1.000000     13.000000      0.000000
      1.000000     13.500000      0.000000
      1.000000     14.000000      0.000000
      1.000000     14.500000      0.000000
      1.000000     15.000000      0.000000
      1.000000     15.500000      0.000000
      1.000000     16.000000      0.000000
      1.000000     16.500000      0.000000
      1.000000     17.000000      0.000000
      1.000000     17.500000      0.000000
      1.000000     18.000000      0.000000
      1.000000     18.500000      0.000000
      1.000000     19.000000      0.000000
      1.000000     19.500000      0.000000
      1.000000     20.000000      0.000000
      1.000000     20.500000      0.000000
      1.000000     21.000000      0.000000
      1.000000     21.500000      0.000000
      1.000000     22.000000      0.000000
      1.000000     22.500000      0.000000
      1.000000     23.000000      0.000000
      1.000000     23.500000      0.000000
      1.000000     24.000000      0.000000
      1.000000     24.500000      0.000000
      1.000000     25.000000      0.000000
      1.000000     25.500000      0.000000
      1.000000     26.000000      0.000000
      1.000000     26.500000      0.000000
      1.000000     27.000000      0.000000
      1.000000     27.500000      0.000000
      1.000000     28.000000      0.000000
      1.000000     28.500000      0.000000
      1.000000     29.000000      0.000000
      1.000000     29.500000      0.000000
      1.000000     30.000000      0.000000
      1.000000     30.500000      0.000000
      1.000000     31.000000      0.000000
      1.000000     31.500000      0.000000
      1.500000      0.000000      0.000000
      1.500000      0.500000      0.000000
      1.500000      1.000000      0.000000
      1.500000      1.500000      0.000000
      1.500000      2.000000      0.000000
      1.500000      2.500000      0.000000
      1.500000      3.000000      0.000000
      1.500000      3.500000      0.000000
      1.500000      4.000000      0.000000
      1.500000      4.500000      0.000000
      1.500000      5.000000      0.000000
      1.500000      5.500000      0.000000
      1.500000      6.000000      0.000000
      1.500000      6.500000      0.000000
      1.500000      7.000000      0.000000
      1.500000      7.500000      0.000000
      1.500000      8.000000      0.000000
      1.500000      8.500000      0.000000
      1.500000      9.000000      0.000000
      1.500000      9.500000      0.000000
      1.500000     10.000000      0.000000
      1.500000     10.500000      0.000000
      1.500000     11.000000      0.000000
      1.500000     11.500000      0.000000
      1.500000     12.000000      0.000000
      1.500000     12.500000      0.000000
      1.500000     13.000000      0.000000
      1.500000     13.500000      0.000000
      1.500000     14.000000      0.000000
      1.500000     14.500000      0.000000
      1.500000     15.000000      0.000000
      1.500000     15.500000      0.000000
      1.500000     16.000000      0.000000
      1.500000     16.500000      0.000000
      1.500000     17.000000      0.000000
      1.500000     17.500000      0.000000
      1.500000     18.000000      0.000000
[...]
POINT_DATA  4096
SCALARS CON float 1
LOOKUP_TABLE default
      0.999800
      0.999800
      0.999800
      0.999800
      0.999800
      0.999800
      0.999800
      0.999800
      0.999800
      0.999800
      0.999800
      0.999800
      0.999800
      0.999800
      0.999800
      0.999800
      0.999800
      0.999800
      0.999800
      0.999800
      0.999800
      0.999800
      0.999800
      0.999800
      0.999800
      0.999800
      0.999800
      0.999800
      0.999800
      0.999800
      0.999800
      0.999800
      0.999800
      0.999800
      0.999800
      0.999800
      0.999800
      0.999800
      0.999800
      0.999800
      0.999800
      0.999800
      0.999800
      0.999800
      0.999800
      0.999800
      0.999800
      0.999800
      0.999800
      0.999800
      0.999800
      0.999800
      0.999800
      0.999800
      0.999800
      0.999800
      0.999800
      0.999800
      0.999800
      0.999800
      0.999800
      0.999800
      0.999800
      0.999800
      0.999800
      0.999800
      0.999800
      0.999800
      0.999800
      0.999800
      0.999800
      0.999800
      0.999800
      0.999800
      0.999800
      0.999800
      0.999800
      0.999800
      0.999800
      0.999800
      0.999800
      0.999800
      0.999800
      0.999800
      0.999800
      0.999800
      0.999800
      0.999800
      0.999800
      0.999800
      0.999800
      0.999800
      0.999800
      0.999800
      0.999800
      0.999800
      0.999800
      0.999800
      0.999800
      0.999800
      0.999800
      0.999800
      0.999800
      0.999800
      0.999800
      0.999800
      0.999800
      0.999800
      0.999800
      0.999800
      0.999800
      0.999800
      0.999800
      0.999800
      0.999800
      0.999800
      0.999800
      0.999800
      0.999800
      0.999800
      0.999800
      0.999800
      0.999800
      0.999800
      0.999800
      0.999800
      0.999800
      0.999800
      0.999800
      0.999800
      0.999800
      0.999800
      0.999800
      0.999800
      0.999800
      0.999800
      0.999800
      0.999800
      0.999800
      0.999800
      0.999800
      0.999800
      0.999800
      0.999800
      0.999800
      0.999800
      0.999800
      0.999800
      0.999800
      0.999800
      0.999800
      0.999800
      0.999800
      0.999800
      0.999800
      0.999800
      0.999800
      0.999800
      0.999800
      0.999800
      0.999800
      0.999800
      0.999800
      0.999800
      0.999800
      0.999800
      0.999800
      0.999800
      0.999800
      0.999800
      0.999800
      0.999800
      0.999800
      0.999800
      0.999800
      0.999800
      0.999800
      0.999800
      0.999800
      0.999800
      0.999800
      0.999800
      0.999800
      0.999800
      0.999800
      0.999800
      0.999800
      0.999800
      0.999800
      0.999800
      0.999800
      0.999800
      0.999800
      0.999800
      0.999800
      0.999800
      0.999800
      0.999800
      0.999800
      0.999800
      0.999800
      0.999800
      0.999800
      0.999800
      0.999800
      0.999800
      0.999800
      0.999800
      0.999800
      0.999800
      0.999800
      0.999800
      0.999800
      0.999800
      0.999800
      0.999800
      0.999800
      0.999800
      0.999800
      0.999800
      0.999800
      0.999800
      0.999800
      0.999796
      0.999800
      0.999800
      0.999800
      0.999800
      0.999800
      0.999800
      0.999800
      0.999800
      0.999800
      0.999800
      0.999800
      0.999800
      0.999800
      0.999800
      0.999800
      0.999800
      0.999800
      0.999800
      0.999800
      0.999800
      0.999800
      0.999800
      0.999800
      0.999800
      0.999800
      0.999800
      0.999800
      0.999800
      0.999800
      0.999800
      0.999800
      0.999800
      0.999800
      0.999800
      0.999800
      0.999800
      0.999800
      0.999800
      0.999800
      0.999800
      0.999800
      0.999800
      0.999800
      0.999800
      0.999800
      0.999800
      0.999800
      0.999800
      0.999800
      0.999800
      0.999800
      0.999800
      0.999800
      0.999800
      0.999800
      0.999800
      0.999800
      0.999800
      0.999800
      0.999800
      0.999800
      0.999800
      0.999800
      0.999800
      0.999800
      0.999800
      0.999800
      0.999800
      0.999800
      0.999800
      0.999800
      0.999800
      0.999800
      0.999800
      0.999800
      0.999800
      0.999800
      0.999800
      0.999800
      0.999800
      0.999800
      0.999800
      0.999800
      0.999800
      0.999800
      0.999800
      0.999800
      0.999800
      0.999800
      0.999800
      0.999800
      0.999800
      0.999800
      0.999800
      0.999800
      0.999800
      0.999800
      0.999800
      0.999800
      0.999800
      0.999800
      0.999800
      0.999800
      0.999800
      0.999800
      0.999800
      0.999800
      0.999800
      0.999800
      0.999800
      0.999800
      0.999800
      0.999800
      0.999800
      0.999800
      0.999800
      0.999800
      0.999800
      0.999800
      0.999800
      0.999800
      0.999800
      0.999800
      0.999800
      0.999800
      0.999800
      0.999784
      0.999778
      0.999784
      0.999800
      0.999800
      0.999800
      0.999800
      0.999800
      0.999800
      0.999800
      0.999800
      0.999800
      0.999800
      0.999800
      0.999800
      0.999800
      0.999800
      0.999800
      0.999800
      0.999800
      0.999800
      0.999800
      0.999800
      0.999800
      0.999800
      0.999800
      0.999800
      0.999800
      0.999800
      0.999800
      0.999800
      0.999800
      0.999800
      0.999800
      0.999800
      0.999800
      0.999800
      0.999800
      0.999800
      0.999800
      0.999800
      0.999800
      0.999800
      0.999800
      0.999800
      0.999800
      0.999800
      0.999800
      0.999800
      0.999800
      0.999800
      0.999800
      0.999800
      0.999800
      0.999800
      0.999800
      0.999800
      0.999800
      0.999800
      0.999800
      0.999800
      0.999800
      0.999800
      0.999800
      0.999800
      0.999800
      0.999800
      0.999800
      0.999800
      0.999800
      0.999800
      0.999800
      0.999800
      0.999800
      0.999800
      0.999800
      0.999800
      0.999800
      0.999800
      0.999800
      0.999800
      0.999800
      0.999800
      0.999800
      0.999800
      0.999800
      0.999800
      0.999800
      0.999800
      0.999800
      0.999800
      0.999800
      0.999800
      0.999800
      0.999800
      0.999800
      0.999800
      0.999800
      0.999800
      0.999800
      0.999800
      0.999800
      0.999800
      0.999800
      0.999800
      0.999800
      0.999800
      0.999800
      0.999800
      0.999800
      0.999800
      0.999800
      0.999800
      0.999800
      0.999800
      0.999800
      0.999800
      0.999800
      0.999800
      0.999800
      0.999800
      0.999800
      0.999800
      0.999800
      0.999800
      0.999800
      0.999800
      0.999780
      0.999753
      0.999745
      0.999753
      0.999780
      0.999800
      0.999800
      0.999800
      0.999800
      0.999800
      0.999800
      0.999800
      0.999800
      0.999800
      0.999800
      0.999800
      0.999800
      0.999800
      0.999800
      0.999800
      0.999800
      0.999800
      0.999800
      0.999800
      0.999800
      0.999800
      0.999800
      0.999800
      0.999800
      0.999800
      0.999800
      0.999800
      0.999800
      0.999800
      0.999800
      0.999800
      0.999800
      0.999800
      0.999800
      0.999800
      0.999800
      0.999800
      0.999800
      0.999800
      0.999800
      0.999800
      0.999800
      0.999800
      0.999800
      0.999800
      0.999800
      0.999800
      0.999800
      0.999800
      0.999800
      0.999800
      0.999800
      0.999800
      0.999800
      0.999800
      0.999800
      0.999793
      0.999800
      0.999800
      0.999800
      0.999800
      0.999800
      0.999800
      0.999800
      0.999800
      0.999800
      0.999793
      0.999800
      0.999800
      0.999800
      0.999800
      0.999800
      0.999800
      0.999800
      0.999800
      0.999800
      0.999800
      0.999800
      0.999800
      0.999800
      0.999800
      0.999800
      0.999800
      0.999800
      0.999800
      0.999800
      0.999800
      0.999800
      0.999800
      0.999800
      0.999800
      0.999800
      0.999800
      0.999800
      0.999800
      0.999800
      0.999800
      0.999800
      0.999800
      0.999800
      0.999800
      0.999800
      0.999800
      0.999800
      0.999800
      0.999800
      0.999800
      0.999800
      0.999800
      0.999800
      0.999800
      0.999800
      0.999800
      0.999800
      0.999800
      0.999800
      0.999800
      0.999800
      0.999800
      0.999800
      0.999800
      0.999800
      0.999800
      0.999735
      0.999695
      0.999686
      0.999695
      0.999735
      0.999800
      0.999800
      0.999800
      0.999800
      0.999800
      0.999800
      0.999800
      0.999800
      0.999800
      0.999800
      0.999800
      0.999800
      0.999800
      0.999800
      0.999800
      0.999800
      0.999800
      0.999800
      0.999800
      0.999800
      0.999800
      0.999800
      0.999800
      0.999800
      0.999800
      0.999800
      0.999800
      0.999800
      0.999800
      0.999800
      0.999800
      0.999800
      0.999800
      0.999800
      0.999800
      0.999800
      0.999800
      0.999800
      0.999800
      0.999800
      0.999800
      0.999800
      0.999800
      0.999800
      0.999800
      0.999800
      0.999800
      0.999800
      0.999800
      0.999800
      0.999800
      0.999800
      0.999800
      0.999800
      0.999800
      0.999800
      0.999762
      0.999800
      0.999800
      0.999800
      0.999800
      0.999800
      0.999800
      0.999800
      0.999800
      0.999800
      0.999762
      0.999800
      0.999800
      0.999800
      0.999800
      0.999800
      0.999800
      0.999800
      0.999800
      0.999800
      0.999800
      0.999800
      0.999800
      0.999800
      0.999800
      0.999800
      0.999800
      0.999800
      0.999800
      0.999800
      0.999800
      0.999800
      0.999800
      0.999800
      0.999800
      0.999800
      0.999800
      0.999800
      0.999800
      0.999800
      0.999800
      0.999800
      0.999800
      0.999800
      0.999800
      0.999800
      0.999800
      0.999800
      0.999800
      0.999800
      0.999800
      0.999800
      0.999800
      0.999800
      0.999800
      0.999800
      0.999800
      0.999800
      0.999800
      0.999800
      0.999800
      0.999800
      0.999800
      0.999800
      0.999800
      0.999800
      0.999754
      0.999635
      0.999578
      0.999565
      0.999578
      0.999635
      0.999754
      0.999800
      0.999800
      0.999800
      0.999800
      0.999800
      0.999800
      0.999800
      0.999800
      0.999800
      0.999800
      0.999800
      0.999800
      0.999800
      0.999800
      0.999800
      0.999800
      0.999800
      0.999800
      0.999800
      0.999800
      0.999800
      0.999800
      0.999800
      0.999800
      0.999800
      0.999800
      0.999800
      0.999800
      0.999800
      0.999800
      0.999800
      0.999800
      0.999800
      0.999800
      0.999800
      0.999800
      0.999800
      0.999800
      0.999800
      0.999800
      0.999800
      0.999800
      0.999800
      0.999800
      0.999800
      0.999800
      0.999800
      0.999800
      0.999800
      0.999800
      0.999800
      0.999800
      0.999800
      0.999800
      0.999798
      0.999704
      0.999800
      0.999800
      0.999800
      0.999800
      0.999800
      0.999800
      0.999800
      0.999800
      0.999800
      0.999704
      0.999798
      0.999800
      0.999800
      0.999800
      0.999800
      0.999800
      0.999800
      0.999800
      0.999800
      0.999800
      0.999800
      0.999800
      0.999800
      0.999800
      0.999800
      0.999800
      0.999800
      0.999800
      0.999800
      0.999800
      0.999800
      0.999800
      0.999800
      0.999800
      0.999800
      0.999800
      0.999800
      0.999800
      0.999800
      0.999800
      0.999800
      0.999800
      0.999800
      0.999800
      0.999800
      0.999800
      0.999800
      0.999800
      0.999800
      0.999800
      0.999800
      0.999800
      0.999800
      0.999800
      0.999800
      0.999800
      0.999800
      0.999800
      0.999800
      0.999800
      0.999800
      0.999784
      0.999800
      0.999800
      0.999800
      0.999627
      0.999429
      0.999354
      0.999339
      0.999354
      0.999429
      0.999627
      0.999800
      0.999800
      0.999800
      0.999784
      0.999800
      0.999800
      0.999800
      0.999800
      0.999800
      0.999800
      0.999800
      0.999800
      0.999800
      0.999800
      0.999800
      0.999800
      0.999800
      0.999800
      0.999800
      0.999800
      0.999800
      0.999800
      0.999800
      0.999800
      0.999800
      0.999800
      0.999800
      0.999800
      0.999800
      0.999800
      0.999800
      0.999800
      0.999800
      0.999800
      0.999800
      0.999800
      0.999800
      0.999800
      0.999800
      0.999800
      0.999800
      0.999800
      0.999800
      0.999800
      0.999800
      0.999800
      0.999800
      0.999800
      0.999800
      0.999800
      0.999800
      0.999800
      0.999800
      0.999800
      0.999666
      0.999470
      0.999626
      0.999804
      0.999806
      0.999807
      0.999808
      0.999807
      0.999806
      0.999804
      0.999626
      0.999470
      0.999666
      0.999800
      0.999800
      0.999800
      0.999800
      0.999800
      0.999800
      0.999800
      0.999800
      0.999800
      0.999800
      0.999800
      0.999800
      0.999800
      0.999800
      0.999800
      0.999800
      0.999800
      0.999800
      0.999800
      0.999800
      0.999800
      0.999800
      0.999800
      0.999800
      0.999800
      0.999800
      0.999800
      0.999800
      0.999800
      0.999800
      0.999800
      0.999800
      0.999800
      0.999800
      0.999800
      0.999800
      0.999800
      0.999800
      0.999800
      0.999800
      0.999800
      0.999800
      0.999800
      0.999800
      0.999800
      0.999800
      0.999800
      0.999800
      0.999800
      0.999765
      0.999479
      0.999419
      0.998752
      0.997084
      0.995040
      0.993310
      0.992225
      0.991858
      0.992225
      0.993310
      0.995040
      0.997084
      0.998752
      0.999419
      0.999479
      0.999765
      0.999800
      0.999800
      0.999800
      0.999800
      0.999800
      0.999800
      0.999800
      0.999800
      0.999800
      0.999800
      0.999800
      0.999800
      0.999800
      0.999800
      0.999800
      0.999800
      0.999800
      0.999800
      0.999800
      0.999800
      0.999800
      0.999800
      0.999800
      0.999800
      0.999800
      0.999800
      0.999800
      0.999800
      0.999800
      0.999800
      0.999800
      0.999800
      0.999800
      0.999800
      0.999800
      0.999800
      0.999800
      0.999800
      0.999800
      0.999800
      0.999800
      0.999800
      0.999800
      0.999800
      0.999800
      0.999801
      0.999562
      0.999042
      0.997474
      0.993398
      0.987045
      0.978439
      0.967791
      0.957200
      0.949574
      0.946839
      0.949574
      0.957200
      0.967791
      0.978439
      0.987045
      0.993398
      0.997474
      0.999042
      0.999562
      0.999801
      0.999800
      0.999800
      0.999800
      0.999800
      0.999800
      0.999800
      0.999800
      0.999800
      0.999800
      0.999800
      0.999800
      0.999800
      0.999800
      0.999800
      0.999800
      0.999800
      0.999800
      0.999800
      0.999800
      0.999800
      0.999800
      0.999800
      0.999800
      0.999800
      0.999800
      0.999800
      0.999800
      0.999800
      0.999800
      0.999800
      0.999800
      0.999800
      0.999800
      0.999800
      0.999800
      0.999800
      0.999800
      0.999800
      0.999800
      0.999800
      0.999800
      0.999800
      0.999778
      0.999312
      0.997869
      0.993101
      0.981779
      0.959142
      0.918785
      0.863676
      0.808610
      0.767481
      0.744182
      0.736848
      0.744182
      0.767481
      0.808610
      0.863676
      0.918785
      0.959142
      0.981779
      0.993101
      0.997869
      0.999312
      0.999778
      0.999800
      0.999800
      0.999800
      0.999800
      0.999800
      0.999800
      0.999800
      0.999800
      0.999800
      0.999800
      0.999800
      0.999800
      0.999800
      0.999800
      0.999800
      0.999800
      0.999800
      0.999800
      0.999800
      0.999800
      0.999800
      0.999800
      0.999800
      0.999800
      0.999800
      0.999800
      0.999800
      0.999800
      0.999800
      0.999800
      0.999800
      0.999800
      0.999800
      0.999800
      0.999800
      0.999800
      0.999800
      0.999800
      0.999800
      0.999800
      0.999734
      0.999061
      0.996347
      0.986851
      0.960474
      0.899028
      0.799647
      0.699838
      0.643155
      0.640289
      0.662727
      0.682143
      0.689010
      0.682143
      0.662727
      0.640289
      0.643155
      0.699838
      0.799647
      0.899028
      0.960474
      0.986851
      0.996347
      0.999061
      0.999734
      0.999800
      0.999800
      0.999800
      0.999800
      0.999800
      0.999800
      0.999800
      0.999800
      0.999800
      0.999800
      0.999800
      0.999800
      0.999800
      0.999800
      0.999800
      0.999800
      0.999800
      0.999800
      0.999800
      0.999800
      0.999800
      0.999800
      0.999800
      0.999800
      0.999800
      0.999800
      0.999800
      0.999800
      0.999800
      0.999800
      0.999800
      0.999800
      0.999800
      0.999800
      0.999800
      0.999800
      0.999800
      0.999800
      0.999734
      0.998960
      0.995214
      0.980813
      0.934535
      0.826142
      0.686815
      0.637481
      0.704774
      0.793453
      0.858352
      0.896715
      0.915322
      0.920700
      0.915322
      0.896715
      0.858352
      0.793453
      0.704774
      0.637481
      0.686815
      0.826142
      0.934535
      0.980813
      0.995214
      0.998960
      0.999734
      0.999800
      0.999800
      0.999800
      0.999800
      0.999800
      0.999800
      0.999800
      0.999800
      0.999800
      0.999800
      0.999800
      0.999800
      0.999800
      0.999800
      0.999800
      0.999800
      0.999800
      0.999800
      0.999800
      0.999800
      0.999800
      0.999800
      0.999800
      0.999800
      0.999800
      0.999800
      0.999800
      0.999800
      0.999800
      0.999800
      0.999800
      0.999800
      0.999800
      0.999800
      0.999800
      0.999800
      0.999778
      0.999061
      0.995214
      0.978253
      0.916960
      0.772004
      0.640214
      0.697236
      0.831303
      0.919270
      0.960412
      0.977405
      0.984546
      0.987448
      0.988273
      0.987448
      0.984546
      0.977405
      0.960412
      0.919270
      0.831303
      0.697236
      0.640214
      0.772004
      0.916960
      0.978253
      0.995214
      0.999061
      0.999778
      0.999800
      0.999800
      0.999800