# vtk DataFile Version 2.0
time_10.vtk
ASCII
DATASET STRUCTURED_GRID
DIMENSIONS      64     64      1
POINTS    4096 float
      0.000000      0.000000      0.000000
      0.000000      0.500000      0.000000
      0.000000      1.000000      0.000000
      0.000000      1.500000      0.000000
      0.000000      2.000000      0.000000
      0.000000      2.500000      0.000000
      0.000000      3.000000      0.000000
      0.000000      3.500000      0.000000
      0.000000      4.000000      0.000000
      0.000000      4.500000      0.000000
      0.000000      5.000000      0.000000
      0.000000      5.500000      0.000000
      0.000000      6.000000      0.000000
      0.000000      6.500000      0.000000
      0.000000      7.000000      0.000000
      0.000000      7.500000      0.000000
      0.000000      8.000000      0.000000
      0.000000      8.500000      0.000000
      0.000000      9.000000      0.000000
      0.000000      9.500000      0.000000
      0.000000     10.000000      0.000000
      0.000000     10.500000      0.000000
      0.000000     11.000000      0.000000
      0.000000     11.500000      0.000000
      0.000000     12.000000      0.000000
      0.000000     12.500000      0.000000
      0.000000     13.000000      0.000000
      0.000000     13.500000      0.000000
      0.000000     14.000000      0.000000
      0.000000     14.500000      0.000000
      0.000000     15.000000      0.000000
      0.000000     15.500000      0.000000
      0.000000     16.000000      0.000000
      0.000000     16.500000      0.000000
      0.000000     17.000000      0.000000
      0.000000     17.500000      0.000000
      0.000000     18.000000      0.000000
      0.000000     18.500000      0.000000
      0.000000     19.000000      0.000000
      0.000000     19.500000      0.000000
      0.000000     20.000000      0.000000
      0.000000     20.500000      0.000000
      0.000000     21.000000      0.000000
      0.000000     21.500000      0.000000
      0.000000     22.000000      0.000000
      0.000000     22.500000      0.000000
      0.000000     23.000000      0.000000
      0.000000     23.500000      0.000000
      0.000000     24.000000      0.000000
      0.000000     24.500000      0.000000
      0.000000     25.000000      0.000000
      0.000000     25.500000      0.000000
      0.000000     26.000000      0.000000
      0.000000     26.500000      0.000000
      0.000000     27.000000      0.000000
      0.000000     27.500000      0.000000
      0.000000     28.000000      0.000000
      0.000000     28.500000      0.000000
      0.000000     29.000000      0.000000
      0.000000     29.500000      0.000000
      0.000000     30.000000      0.000000
      0.000000     30.500000      0.000000
      0.000000     31.000000      0.000000
      0.000000     31.500000      0.000000
      0.500000      0.000000      0.000000
      0.500000      0.500000      0.000000
      0.500000      1.000000      0.000000
      0.500000      1.500000      0.000000
      0.500000      2.000000      0.000000
      0.500000      2.500000      0.000000
      0.500000      3.000000      0.000000
      0.500000      3.500000      0.000000
      0.500000      4.000000      0.000000
      0.500000      4.500000      0.000000
      0.500000      5.000000      0.000000
      0.500000      5.500000      0.000000
      0.500000      6.000000      0.000000
      0.500000      6.500000      0.000000
      0.500000      7.000000      0.000000
      0.500000      7.500000      0.000000
      0.500000      8.000000      0.000000
      0.500000      8.500000      0.000000
      0.500000      9.000000      0.000000
      0.500000      9.500000      0.000000
      0.500000     10.000000      0.000000
      0.500000     10.500000      0.000000
      0.500000     11.000000      0.000000
      0.500000     11.500000      0.000000
      0.500000     12.000000      0.000000
      0.500000     12.500000      0.000000
      0.500000     13.000000      0.000000
      0.500000     13.500000      0.000000
      0.500000     14.000000      0.000000
      0.500000     14.500000      0.000000
      0.500000     15.000000      0.000000
      0.500000     15.500000      0.000000
      0.500000     16.000000      0.000000
      0.500000     16.500000      0.000000
      0.500000     17.000000      0.000000
      0.500000     17.500000      0.000000
      0.500000     18.000000      0.000000
      0.500000     18.500000      0.000000
      0.500000     19.000000      0.000000
      0.500000     19.500000      0.000000
      0.500000     20.000000      0.000000
      0.500000     20.500000      0.000000
      0.500000     21.000000      0.000000
      0.500000     21.500000      0.000000
      0.500000     22.000000      0.000000
      0.500000     22.500000      0.000000
      0.500000     23.000000      0.000000
      0.500000     23.500000      0.000000
      0.500000     24.000000      0.000000
      0.500000     24.500000      0.000000
      0.500000     25.000000      0.000000
      0.500000     25.500000      0.000000
      0.500000     26.000000      0.000000
      0.500000     26.500000      0.000000
      0.500000     27.000000      0.000000
      0.500000     27.500000      0.000000
      0.500000     28.000000      0.000000
      0.500000     28.500000      0.000000
      0.500000     29.000000      0.000000
      0.500000     29.500000      0.000000
      0.500000     30.000000      0.000000
      0.500000     30.500000      0.000000
      0.500000     31.000000      0.000000
      0.500000     31.500000      0.000000
      1.000000      0.000000      0.000000
      1.000000      0.500000      0.000000
      1.000000      1.000000      0.000000
      1.000000      1.500000      0.000000
      1.000000      2.000000      0.000000
      1.000000      2.500000      0.000000
      1.000000      3.000000      0.000000
      1.000000      3.500000      0.000000
      1.000000      4.000000      0.000000
      1.000000      4.500000      0.000000
      1.000000      5.000000      0.000000
      1.000000      5.500000      0.000000
      1.000000      6.000000      0.000000
      1.000000      6.500000      0.000000
      1.000000      7.000000      0.000000
      1.000000      7.500000      0.000000
      1.000000      8.000000      0.000000
      1.000000      8.500000      0.000000
      1.000000      9.000000      0.000000
      1.000000      9.500000      0.000000
      1.000000     10.000000      0.000000
      1.000000     10.500000      0.000000
      1.000000     11.000000      0.000000
      1.000000     11.500000      0.000000
      1.000000     12.000000      0.000000
      1.000000     12.500000      0.000000
      1.000000     13.000000      0.000000
      1.000000     13.500000      0.000000
      1.000000     14.000000      0.000000
      1.000000     14.500000      0.000000
      1.000000     15.000000      0.000000
      1.000000     15.500000      0.000000
      1.000000     16.000000      0.000000
      1.000000     16.500000      0.000000
      1.000000     17.000000      0.000000
      1.000000     17.500000      0.000000
      1.000000     18.000000      0.000000
      1.000000     18.500000      0.000000
      1.000000     19.000000      0.000000
      1.000000     19.500000      0.000000
      1.000000     20.000000      0.000000
      1.000000     20.500000      0.000000
      1.000000     21.000000      0.000000
      1.000000     21.500000      0.000000
      1.000000     22.000000      0.000000
      1.000000     22.500000      0.000000
      1.000000     23.000000      0.000000
      1.000000     23.500000      0.000000
      1.000000     24.000000      0.000000
      1.000000     24.500000      0.000000
      1.000000     25.000000      0.000000
      1.000000     25.500000      0.000000
      1.000000     26.000000      0.000000
      1.000000     26.500000      0.000000
      1.000000     27.000000      0.000000
      1.000000     27.500000      0.000000
      1.000000     28.000000      0.000000
      1.000000     28.500000      0.000000
      1.000000     29.000000      0.000000
      1.000000     29.500000      0.000000
      1.000000     30.000000      0.000000
      1.000000     30.500000      0.000000
      1.000000     31.000000      0.000000
      1.000000     31.500000      0.000000
      1.500000      0.000000      0.000000
      1.500000      0.500000      0.000000
      1.500000      1.000000      0.000000
      1.500000      1.500000      0.000000
      1.500000      2.000000      0.000000
      1.500000      2.500000      0.000000
      1.500000      3.000000      0.000000
      1.500000      3.500000      0.000000
      1.500000      4.000000      0.000000
      1.500000      4.500000      0.000000
      1.500000      5.000000      0.000000
      1.500000      5.500000      0.000000
      1.500000      6.000000      0.000000
      1.500000      6.500000      0.000000
      1.500000      7.000000      0.000000
      1.500000      7.500000      0.000000
      1.500000      8.000000      0.000000
      1.500000      8.500000      0.000000
      1.500000      9.000000      0.000000
      1.500000      9.500000      0.000000
      1.500000     10.000000      0.000000
      1.500000     10.500000      0.000000
      1.500000     11.000000      0.000000
      1.500000     11.500000      0.000000
      1.500000     12.000000      0.000000
      1.500000     12.500000      0.000000
      1.500000     13.000000      0.000000
      1.500000     13.500000      0.000000
      1.500000     14.000000      0.000000
      1.500000     14.500000      0.000000
      1.500000     15.000000      0.000000
      1.500000     15.500000      0.000000
      1.500000     16.000000      0.000000
      1.500000     16.500000      0.000000
      1.500000     17.000000      0.000000
      1.500000     17.500000      0.000000
      1.500000     18.000000      0.000000
[...]
POINT_DATA  4096
SCALARS CON float 1
LOOKUP_TABLE default
      0.999800
      0.999800
      0.999800
      0.999800
      0.999800
      0.999800
      0.999800
      0.999800
      0.999800
      0.999800
      0.999800
      0.999800
      0.999800
      0.999800
      0.999800
      0.999800
      0.999800
      0.999704
      0.999800
      0.999800
      0.999689
      0.999800
      0.999677
      0.999800
      0.999633
      0.999629
      0.999800
      0.999800
      0.999800
      0.999800
      0.999800
      0.999624
      0.999800
      0.999800
      0.999800
      0.999800
      0.999800
      0.999629
      0.999633
      0.999800
      0.999677
      0.999800
      0.999689
      0.999800
      0.999800
      0.999704
      0.999800
      0.999800
      0.999800
      0.999800
      0.999800
      0.999800
      0.999800
      0.999800
      0.999800
      0.999800
      0.999800
      0.999800
      0.999800
      0.999800
      0.999800
      0.999800
      0.999800
      0.999800
      0.999800
      0.999800
      0.999800
      0.999800
      0.999800
      0.999800
      0.999800
      0.999800
      0.999800
      0.999800
      0.999800
      0.999800
      0.999800
      0.999800
      0.999800
      0.999800
      0.999800
      0.999800
      0.999683
      0.999678
      0.999800
      0.999683
      0.999800
      0.999664
      0.999800
      0.999800
      0.999613
      0.999589
      0.999596
      0.999587
      0.999620
      0.999800
      0.999620
      0.999587
      0.999596
      0.999589
      0.999613
      0.999800
      0.999800
      0.999664
      0.999800
      0.999683
      0.999800
      0.999678
      0.999683
      0.999800
      0.999800
      0.999800
      0.999800
      0.999800
      0.999800
      0.999800
      0.999800
      0.999800
      0.999800
      0.999800
      0.999800
      0.999800
      0.999800
      0.999800
      0.999800
      0.999800
      0.999800
      0.999800
      0.999800
      0.999800
      0.999800
      0.999800
      0.999800
      0.999800
      0.999800
      0.999800
      0.999800
      0.999800
      0.999800
      0.999800
      0.999800
      0.999800
      0.999800
      0.999800
      0.999800
      0.999701
      0.999800
      0.999800
      0.999685
      0.999800
      0.999671
      0.999800
      0.999624
      0.999620
      0.999800
      0.999800
      0.999800
      0.999800
      0.999800
      0.999612
      0.999800
      0.999800
      0.999800
      0.999800
      0.999800
      0.999620
      0.999624
      0.999800
      0.999671
      0.999800
      0.999685
      0.999800
      0.999800
      0.999701
      0.999800
      0.999800
      0.999800
      0.999800
      0.999800
      0.999800
      0.999800
      0.999800
      0.999800
      0.999800
      0.999800
      0.999800
      0.999800
      0.999800
      0.999800
      0.999800
      0.999800
      0.999800
      0.999800
      0.999800
      0.999800
      0.999800
      0.999800
      0.999800
      0.999800
      0.999800
      0.999800
      0.999800
      0.999800
      0.999800
      0.999800
      0.999800
      0.999800
      0.999800
      0.999800
      0.999800
      0.999678
      0.999672
      0.999800
      0.999676
      0.999800
      0.999654
      0.999800
      0.999800
      0.999596
      0.999569
      0.999576
      0.999567
      0.999603
      0.999800
      0.999603
      0.999567
      0.999576
      0.999569
      0.999596
      0.999800
      0.999800
      0.999654
      0.999800
      0.999676
      0.999800
      0.999672
      0.999678
      0.999800
      0.999800
      0.999800
      0.999800
      0.999800
      0.999800
      0.999800
      0.999800
      0.999800
      0.999800
      0.999800
      0.999800
      0.999800
      0.999800
      0.999800
      0.999800
      0.999800
      0.999800
      0.999800
      0.999800
      0.999800
      0.999800
      0.999800
      0.999800
      0.999800
      0.999800
      0.999800
      0.999800
      0.999800
      0.999800
      0.999800
      0.999800
      0.999800
      0.999800
      0.999800
      0.999800
      0.999697
      0.999800
      0.999800
      0.999676
      0.999800
      0.999659
      0.999800
      0.999603
      0.999599
      0.999800
      0.999800
      0.999800
      0.999800
      0.999800
      0.999582
      0.999800
      0.999800
      0.999800
      0.999800
      0.999800
      0.999599
      0.999603
      0.999800
      0.999659
      0.999800
      0.999676
      0.999800
      0.999800
      0.999697
      0.999800
      0.999800
      0.999800
      0.999800
      0.999800
      0.999800
      0.999800
      0.999800
      0.999800
      0.999800
      0.999800
      0.999800
      0.999800
      0.999800
      0.999800
      0.999800
      0.999800
      0.999800
      0.999800
      0.999800
      0.999800
      0.999800
      0.999800
      0.999800
      0.999800
      0.999800
      0.999800
      0.999800
      0.999800
      0.999800
      0.999800
      0.999800
      0.999800
      0.999800
      0.999800
      0.999800
      0.999669
      0.999662
      0.999800
      0.999663
      0.999800
      0.999634
      0.999800
      0.999800
      0.999561
      0.999530
      0.999539
      0.999528
      0.999570
      0.999800
      0.999570
      0.999528
      0.999539
      0.999530
      0.999561
      0.999800
      0.999800
      0.999634
      0.999800
      0.999663
      0.999800
      0.999662
      0.999669
      0.999800
      0.999800
      0.999800
      0.999800
      0.999800
      0.999800
      0.999800
      0.999800
      0.999800
      0.999800
      0.999800
      0.999800
      0.999800
      0.999800
      0.999800
      0.999800
      0.999800
      0.999800
      0.999800
      0.999800
      0.999800
      0.999800
      0.999800
      0.999800
      0.999800
      0.999800
      0.999800
      0.999800
      0.999800
      0.999800
      0.999800
      0.999800
      0.999800
      0.999800
      0.999800
      0.999800
      0.999689
      0.999800
      0.999800
      0.999662
      0.999800
      0.999638
      0.999800
      0.999566
      0.999563
      0.999800
      0.999800
      0.999800
      0.999800
      0.999800
      0.999528
      0.999800
      0.999800
      0.999800
      0.999800
      0.999800
      0.999563
      0.999566
      0.999800
      0.999638
      0.999800
      0.999662
      0.999800
      0.999800
      0.999689
      0.999800
      0.999800
      0.999800
      0.999800
      0.999800
      0.999800
      0.999800
      0.999800
      0.999800
      0.999800
      0.999800
      0.999800
      0.999800
      0.999800
      0.999800
      0.999800
      0.999800
      0.999800
      0.999800
      0.999800
      0.999800
      0.999800
      0.999800
      0.999800
      0.999800
      0.999800
      0.999800
      0.999800
      0.999800
      0.999800
      0.999800
      0.999800
      0.999800
      0.999800
      0.999800
      0.999800
      0.999655
      0.999645
      0.999800
      0.999641
      0.999800
      0.999600
      0.999800
      0.999800
      0.999498
      0.999454
      0.999467
      0.999450
      0.999510
      0.999800
      0.999510
      0.999450
      0.999467
      0.999454
      0.999498
      0.999800
      0.999800
      0.999600
      0.999800
      0.999641
      0.999800
      0.999645
      0.999655
      0.999800
      0.999800
      0.999800
      0.999800
      0.999800
      0.999800
      0.999800
      0.999800
      0.999800
      0.999800
      0.999800
      0.999800
      0.999800
      0.999800
      0.999800
      0.999800
      0.999800
      0.999800
      0.999800
      0.999800
      0.999800
      0.999800
      0.999800
      0.999800
      0.999800
      0.999800
      0.999800
      0.999800
      0.999800
      0.999800
      0.999800
      0.999800
      0.999800
      0.999800
      0.999800
      0.999800
      0.999678
      0.999800
      0.999800
      0.999639
      0.999800
      0.999604
      0.999800
      0.999501
      0.999499
      0.999800
      0.999800
      0.999800
      0.999800
      0.999800
      0.999379
      0.999800
      0.999800
      0.999800
      0.999800
      0.999800
      0.999499
      0.999501
      0.999800
      0.999604
      0.999800
      0.999639
      0.999800
      0.999800
      0.999678
      0.999800
      0.999800
      0.999800
      0.999800
      0.999800
      0.999800
      0.999800
      0.999800
      0.999800
      0.999800
      0.999800
      0.999800
      0.999800
      0.999800
      0.999800
      0.999800
      0.999800
      0.999800
      0.999800
      0.999800
      0.999800
      0.999800
      0.999800
      0.999800
      0.999800
      0.999800
      0.999800
      0.999800
      0.999800
      0.999800
      0.999800
      0.999800
      0.999800
      0.999800
      0.999800
      0.999800
      0.999633
      0.999618
      0.999800
      0.999606
      0.999800
      0.999543
      0.999800
      0.999800
      0.999324
      0.999258
      0.999277
      0.999252
      0.999348
      0.999800
      0.999348
      0.999252
      0.999277
      0.999258
      0.999324
      0.999800
      0.999800
      0.999543
      0.999800
      0.999606
      0.999800
      0.999618
      0.999633
      0.999800
      0.999800
      0.999800
      0.999800
      0.999800
      0.999800
      0.999800
      0.999800
      0.999800
      0.999800
      0.999800
      0.999800
      0.999800
      0.999800
      0.999800
      0.999800
      0.999800
      0.999800
      0.999800
      0.999800
      0.999800
      0.999800
      0.999800
      0.999800
      0.999800
      0.999800
      0.999800
      0.999800
      0.999800
      0.999800
      0.999800
      0.999800
      0.999800
      0.999800
      0.999800
      0.999800
      0.999663
      0.999800
      0.999800
      0.999603
      0.999800
      0.999547
      0.999800
      0.999325
      0.999326
      0.999800
      0.999800
      0.999800
      0.999800
      0.999800
      0.999045
      0.999800
      0.999800
      0.999800
      0.999800
      0.999800
      0.999326
      0.999325
      0.999800
      0.999547
      0.999800
      0.999603
      0.999800
      0.999800
      0.999663
      0.999800
      0.999800
      0.999800
      0.999800
      0.999800
      0.999800
      0.999800
      0.999800
      0.999800
      0.999800
      0.999800
      0.999800
      0.999800
      0.999800
      0.999800
      0.999800
      0.999800
      0.999800
      0.999800
      0.999800
      0.999800
      0.999800
      0.999800
      0.999800
      0.999800
      0.999800
      0.999800
      0.999800
      0.999800
      0.999800
      0.999800
      0.999800
      0.999800
      0.999800
      0.999800
      0.999800
      0.999601
      0.999578
      0.999800
      0.999549
      0.999800
      0.999400
      0.999800
      0.999800
      0.998955
      0.998851
      0.998882
      0.998840
      0.999001
      0.999800
      0.999001
      0.998840
      0.998882
      0.998851
      0.998955
      0.999800
      0.999800
      0.999400
      0.999800
      0.999549
      0.999800
      0.999578
      0.999601
      0.999800
      0.999800
      0.999800
      0.999800
      0.999800
      0.999800
      0.999800
      0.999800
      0.999800
      0.999800
      0.999800
      0.999800
      0.999800
      0.999800
      0.999800
      0.999800
      0.999800
      0.999800
      0.999800
      0.999800
      0.999800
      0.999800
      0.999800
      0.999800
      0.999800
      0.999800
      0.999800
      0.999800
      0.999800
      0.999800
      0.999800
      0.999800
      0.999800
      0.999800
      0.999800
      0.999800
      0.999641
      0.999800
      0.999800
      0.999544
      0.999800
      0.999408
      0.999800
      0.998951
      0.998963
      0.999800
      0.999800
      0.999800
      0.999800
      0.999800
      0.998173
      0.999800
      0.999800
      0.999800
      0.999800
      0.999800
      0.998963
      0.998951
      0.999800
      0.999408
      0.999800
      0.999544
      0.999800
      0.999800
      0.999641
      0.999800
      0.999800
      0.999800
      0.999800
      0.999800
      0.999800
      0.999800
      0.999800
      0.999800
      0.999800
      0.999800
      0.999800
      0.999800
      0.999800
      0.999800
      0.999800
      0.999800
      0.999800
      0.999800
      0.999800
      0.999800
      0.999800
      0.999800
      0.999800
      0.999800
      0.999800
      0.999800
      0.999800
      0.999800
      0.999800
      0.999800
      0.999800
      0.999800
      0.999800
      0.999800
      0.999800
      0.999551
      0.999513
      0.999800
      0.999411
      0.999800
      0.999072
      0.999800
      0.999800
      0.998002
      0.997798
      0.997865
      0.997775
      0.998121
      0.999800
      0.998121
      0.997775
      0.997865
      0.997798
      0.998002
      0.999800
      0.999800
      0.999072
      0.999800
      0.999411
      0.999800
      0.999513
      0.999551
      0.999800
      0.999800
      0.999800
      0.999800
      0.999800
      0.999800
      0.999800
      0.999800
      0.999800
      0.999800
      0.999800
      0.999800
      0.999800
      0.999800
      0.999800
      0.999800
      0.999800
      0.999800
      0.999800
      0.999800
      0.999800
      0.999800
      0.999800
      0.999800
      0.999800
      0.999800
      0.999800
      0.999800
      0.999800
      0.999800
      0.999800
      0.999800
      0.999800
      0.999800
      0.999800
      0.999800
      0.999611
      0.999800
      0.999800
      0.999402
      0.999800
      0.999086
      0.999800
      0.997978
      0.998046
      0.999800
      0.999800
      0.999800
      0.999800
      0.999800
      0.994610
      0.999800
      0.999800
      0.999800
      0.999800
      0.999800
      0.998046
      0.997978
      0.999800
      0.999086
      0.999800
      0.999402
      0.999800
      0.999800
      0.999611
      0.999800
      0.999800
      0.999800
      0.999800
      0.999800
      0.999800
      0.999800
      0.999800
      0.999800
      0.999800
      0.999800
      0.999800
      0.999800
      0.999800
      0.999800
      0.999800
      0.999800
      0.999800
      0.999800
      0.999800
      0.999800
      0.999800
      0.999800
      0.999800
      0.999800
      0.999800
      0.999800
      0.999800
      0.999800
      0.999800
      0.999800
      0.999800
      0.999800
      0.999800
      0.999800
      0.999800
      0.999461
      0.999346
      0.999800
      0.999091
      0.999800
      0.998229
      0.999800
      0.999800
      0.994154
      0.993553
      0.993790
      0.993445
      0.994790
      0.999800
      0.994790
      0.993445
      0.993790
      0.993553
      0.994154
      0.999800
      0.999800
      0.998229
      0.999800
      0.999091
      0.999800
      0.999346
      0.999461
      0.999800
      0.999800
      0.999800
      0.999800
      0.999800
      0.999800
      0.999800
      0.999800
      0.999800
      0.999800
      0.999800
      0.999800
      0.999800
      0.999800
      0.999800
      0.999800
      0.999800
      0.999800
      0.999800
      0.999800
      0.999800
      0.999800
      0.999800
      0.999800
      0.999800
      0.999800
      0.999800
      0.999800
      0.999800
      0.999800
      0.999800
      0.999800
      0.999800
      0.999800
      0.999800
      0.999790
      0.999581
      0.999800
      0.999800
      0.999055
      0.999800
      0.998231
      0.999800
      0.993948
      0.994620
      0.999800
      0.999800
      0.999800
      0.999800
      0.999800
      0.928807
      0.999800
      0.999800
      0.999800
      0.999800
      0.999800
      0.994620
      0.993948
      0.999800
      0.998231
      0.999800
      0.999055
      0.999800
      0.999800
      0.999581
      0.999790
      0.999800
      0.999800
      0.999800
      0.999800
      0.999800
      0.999800
      0.999800
      0.999800
      0.999800
      0.999800
      0.999800
      0.999800
      0.999800
      0.999800
      0.999800
      0.999800
      0.999800
      0.999704
      0.999800
      0.999701
      0.999800
      0.999697
      0.999800
      0.999689
      0.999800
      0.999678
      0.999800
      0.999663
      0.999800
      0.999641
      0.999800
      0.999611
      0.999800
      0.999581
      0.999800
      0.998759
      0.999537
      0.999800
      0.999076
      0.999800
      0.996065
      0.999800
      0.999800
      0.921075
      0.922265
      0.911902
      0.935736
      0.842238
      0.791745
      0.842238
      0.935736
      0.911902
      0.922265
      0.921075
      0.999800
      0.999800
      0.996065
      0.999800
      0.999076
      0.999800
      0.999537
      0.998759
      0.999800
      0.999581
      0.999800
      0.999611
      0.999800
      0.999641
      0.999800
      0.999663
      0.999800
      0.999678
      0.999800
      0.999689
      0.999800
      0.999697
      0.999800
      0.999701
      0.999800
      0.999704
      0.999800
      0.999800
      0.999683
      0.999800
      0.999678
      0.999800
      0.999669
      0.999800
      0.999655
      0.999800
      0.999633
      0.999800
      0.999601
      0.999800
      0.999551
      0.999800
      0.999461
      0.999800
      0.998759
      0.999800
      0.999797
      0.999779
      0.999745
      0.998867
      0.999773
      0.936447
      0.852075
      0.852133
      0.931199
      0.913831
      0.920869
      0.922043
      0.999800
      0.922043
      0.920869
      0.913831
      0.931199
      0.852133
      0.852075
      0.936447
      0.999773
      0.998867
      0.999745
      0.999779
      0.999797
      0.999800
      0.998759
      0.999800
      0.999461
      0.999800
      0.999551
      0.999800
      0.999601
      0.999800
      0.999633
      0.999800
      0.999655
      0.999800
      0.999669
      0.999800
      0.999678
      0.999800
      0.999683
      0.999800
      0.999685
      0.999800
      0.999678
      0.999800
      0.999672
      0.999800
      0.999662
      0.999800
      0.999645
      0.999800
      0.999618
      0.999800
      0.999578
      0.999800
      0.999513
      0.999800
      0.999346
      0.999800
      0.999537
      0.999797
      0.996354
      0.999800
      0.990014
      0.999800
      0.857110
      0.852119
      0.936005
      0.999800
      0.999800
      0.999800
      0.999800
      0.999800
      0.997013
      0.999800
      0.999800
      0.999800
      0.999800
      0.999800
      0.936005
      0.852119
      0.857110
      0.999800
      0.990014
      0.999800
      0.996354
      0.999797
      0.999537
      0.999800
      0.999346
      0.999800
      0.999513
      0.999800
      0.999578
      0.999800
      0.999618
      0.999800
      0.999645
      0.999800
      0.999662
      0.999800
      0.999672
      0.999800
      0.999678
      0.999800
      0.999680
      0.999689
      0.999800
      0.999685
      0.999800
      0.999676
      0.999800
      0.999662
      0.999800
      0.999639
      0.999800
      0.999603
      0.999800
      0.999544
      0.999800
      0.999402
      0.999800
      0.999055
      0.999800
      0.999779
      0.999800
      0.990202
      0.999800
      0.857817
      0.857256
      0.999800
      0.999800
      0.997396
      0.991697
      0.995093
      0.992431
      0.995218
      0.999800
      0.995218
      0.992431
      0.995093
      0.991697
      0.997396
      0.999800
      0.999800
      0.857256
      0.857817
      0.999800
      0.990202
      0.999800
      0.999779
      0.999800
      0.999055
      0.999800
      0.999402