# vtk DataFile Version 2.0
time_10.vtk
ASCII
DATASET STRUCTURED_GRID
DIMENSIONS      64     64      1
POINTS    4096 float
      0.000000      0.000000      0.000000
      0.000000      0.500000      0.000000
      0.000000      1.000000      0.000000
      0.000000      1.500000      0.000000
      0.000000      2.000000      0.000000
      0.000000      2.500000      0.000000
      0.000000      3.000000      0.000000
      0.000000      3.500000      0.000000
      0.000000      4.000000      0.000000
      0.000000      4.500000      0.000000
      0.000000      5.000000      0.000000
      0.000000      5.500000      0.000000
      0.000000      6.000000      0.000000
      0.000000      6.500000      0.000000
      0.000000      7.000000      0.000000
      0.000000      7.500000      0.000000
      0.000000      8.000000      0.000000
      0.000000      8.500000      0.000000
      0.000000      9.000000      0.000000
      0.000000      9.500000      0.000000
      0.000000     10.000000      0.000000
      0.000000     10.500000      0.000000
      0.000000     11.000000      0.000000
      0.000000     11.500000      0.000000
      0.000000     12.000000      0.000000
      0.000000     12.500000      0.000000
      0.000000     13.000000      0.000000
      0.000000     13.500000      0.000000
      0.000000     14.000000      0.000000
      0.000000     14.500000      0.000000
      0.000000     15.000000      0.000000
      0.000000     15.500000      0.000000
      0.000000     16.000000      0.000000
      0.000000     16.500000      0.000000
      0.000000     17.000000      0.000000
      0.000000     17.500000      0.000000
      0.000000     18.000000      0.000000
      0.000000     18.500000      0.000000
      0.000000     19.000000      0.000000
      0.000000     19.500000      0.000000
      0.000000     20.000000      0.000000
      0.000000     20.500000      0.000000
      0.000000     21.000000      0.000000
      0.000000     21.500000      0.000000
      0.000000     22.000000      0.000000
      0.000000     22.500000      0.000000
      0.000000     23.000000      0.000000
      0.000000     23.500000      0.000000
      0.000000     24.000000      0.000000
      0.000000     24.500000      0.000000
      0.000000     25.000000      0.000000
      0.000000     25.500000      0.000000
      0.000000     26.000000      0.000000
      0.000000     26.500000      0.000000
      0.000000     27.000000      0.000000
      0.000000     27.500000      0.000000
      0.000000     28.000000      0.000000
      0.000000     28.500000      0.000000
      0.000000     29.000000      0.000000
      0.000000     29.500000      0.000000
      0.000000     30.000000      0.000000
      0.000000     30.500000      0.000000
      0.000000     31.000000      0.000000
      0.000000     31.500000      0.000000
      0.500000      0.000000      0.000000
      0.500000      0.500000      0.000000
      0.500000      1.000000      0.000000
      0.500000      1.500000      0.000000
      0.500000      2.000000      0.000000
      0.500000      2.500000      0.000000
      0.500000      3.000000      0.000000
      0.500000      3.500000      0.000000
      0.500000      4.000000      0.000000
      0.500000      4.500000      0.000000
      0.500000      5.000000      0.000000
      0.500000      5.500000      0.000000
      0.500000      6.000000      0.000000
      0.500000      6.500000      0.000000
      0.500000      7.000000      0.000000
      0.500000      7.500000      0.000000
      0.500000      8.000000      0.000000
      0.500000      8.500000      0.000000
      0.500000      9.000000      0.000000
      0.500000      9.500000      0.000000
      0.500000     10.000000      0.000000
      0.500000     10.500000      0.000000
      0.500000     11.000000      0.000000
      0.500000     11.500000      0.000000
      0.500000     12.000000      0.000000
      0.500000     12.500000      0.000000
      0.500000     13.000000      0.000000
      0.500000     13.500000      0.000000
      0.500000     14.000000      0.000000
      0.500000     14.500000      0.000000
      0.500000     15.000000      0.000000
      0.500000     15.500000      0.000000
      0.500000     16.000000      0.000000
      0.500000     16.500000      0.000000
      0.500000     17.000000      0.000000
      0.500000     17.500000      0.000000
      0.500000     18.000000      0.000000
      0.500000     18.500000      0.000000
      0.500000     19.000000      0.000000
      0.500000     19.500000      0.000000
      0.500000     20.000000      0.000000
      0.500000     20.500000      0.000000
      0.500000     21.000000      0.000000
      0.500000     21.500000      0.000000
      0.500000     22.000000      0.000000
      0.500000     22.500000      0.000000
      0.500000     23.000000      0.000000
      0.500000     23.500000      0.000000
      0.500000     24.000000      0.000000
      0.500000     24.500000      0.000000
      0.500000     25.000000      0.000000
      0.500000     25.500000      0.000000
      0.500000     26.000000      0.000000
      0.500000     26.500000      0.000000
      0.500000     27.000000      0.000000
      0.500000     27.500000      0.000000
      0.500000     28.000000      0.000000
      0.500000     28.500000      0.000000
      0.500000     29.000000      0.000000
      0.500000     29.500000      0.000000
      0.500000     30.000000      0.000000
      0.500000     30.500000      0.000000
      0.500000     31.000000      0.000000
      0.500000     31.500000      0.000000
      1.000000      0.000000      0.000000
      1.000000      0.500000      0.000000
      1.000000      1.000000      0.000000
      1.000000      1.500000      0.000000
      1.000000      2.000000      0.000000
      1.000000      2.500000      0.000000
      1.000000      3.000000      0.000000
      1.000000      3.500000      0.000000
      1.000000      4.000000      0.000000
      1.000000      4.500000      0.000000
      1.000000      5.000000      0.000000
      1.000000      5.500000      0.000000
      1.000000      6.000000      0.000000
      1.000000      6.500000      0.000000
      1.000000      7.000000      0.000000
      1.000000      7.500000      0.000000
      1.000000      8.000000      0.000000
      1.000000      8.500000      0.000000
      1.000000      9.000000      0.000000
      1.000000      9.500000      0.000000
      1.000000     10.000000      0.000000
      1.000000     10.500000      0.000000
      1.000000     11.000000      0.000000
      1.000000     11.500000      0.000000
      1.000000     12.000000      0.000000
      1.000000     12.500000      0.000000
      1.000000     13.000000      0.000000
      1.000000     13.500000      0.000000
      1.000000     14.000000      0.000000
      1.000000     14.500000      0.000000
      1.000000     15.000000      0.000000
      1.000000     15.500000      0.000000
      1.000000     16.000000      0.000000
      1.000000     16.500000      0.000000
      1.000000     17.000000      0.000000
      1.000000     17.500000      0.000000
      1.000000     18.000000      0.000000
      1.000000     18.500000      0.000000
      1.000000     19.000000      0.000000
      1.000000     19.500000      0.000000
      1.000000     20.000000      0.000000
      1.000000     20.500000      0.000000
      1.000000     21.000000      0.000000
      1.000000     21.500000      0.000000
      1.000000     22.000000      0.000000
      1.000000     22.500000      0.000000
      1.000000     23.000000      0.000000
      1.000000     23.500000      0.000000
      1.000000     24.000000      0.000000
      1.000000     24.500000      0.000000
      1.000000     25.000000      0.000000
      1.000000     25.500000      0.000000
      1.000000     26.000000      0.000000
      1.000000     26.500000      0.000000
      1.000000     27.000000      0.000000
      1.000000     27.500000      0.000000
      1.000000     28.000000      0.000000
      1.000000     28.500000      0.000000
      1.000000     29.000000      0.000000
      1.000000     29.500000      0.000000
      1.000000     30.000000      0.000000
      1.000000     30.500000      0.000000
      1.000000     31.000000      0.000000
      1.000000     31.500000      0.000000
      1.500000      0.000000      0.000000
      1.500000      0.500000      0.000000
      1.500000      1.000000      0.000000
      1.500000      1.500000      0.000000
      1.500000      2.000000      0.000000
      1.500000      2.500000      0.000000
      1.500000      3.000000      0.000000
      1.500000      3.500000      0.000000
      1.500000      4.000000      0.000000
      1.500000      4.500000      0.000000
      1.500000      5.000000      0.000000
      1.500000      5.500000      0.000000
      1.500000      6.000000      0.000000
      1.500000      6.500000      0.000000
      1.500000      7.000000      0.000000
      1.500000      7.500000      0.000000
      1.500000      8.000000      0.000000
      1.500000      8.500000      0.000000
      1.500000      9.000000      0.000000
      1.500000      9.500000      0.000000
      1.500000     10.000000      0.000000
      1.500000     10.500000      0.000000
      1.500000     11.000000      0.000000
      1.500000     11.500000      0.000000
      1.500000     12.000000      0.000000
      1.500000     12.500000      0.000000
      1.500000     13.000000      0.000000
      1.500000     13.500000      0.000000
      1.500000     14.000000      0.000000
      1.500000     14.500000      0.000000
      1.500000     15.000000      0.000000
      1.500000     15.500000      0.000000
      1.500000     16.000000      0.000000
      1.500000     16.500000      0.000000
      1.500000     17.000000      0.000000
      1.500000     17.500000      0.000000
      1.500000     18.000000      0.000000
[...]
POINT_DATA  4096
SCALARS CON float 1
LOOKUP_TABLE default
      0.999800
      0.999800
      0.999800
      0.999800
      0.999800
      0.999800
      0.999800
      0.999800
      0.999800
      0.999800
      0.999800
      0.999800
      0.999800
      0.999800
      0.999800
      0.999800
      0.999800
      0.999800
      0.999800
      0.999800
      0.999800
      0.999800
      0.999800
      0.999800
      0.999800
      0.999800
      0.999800
      0.999800
      0.999800
      0.999800
      0.999800
      0.999800
      0.999800
      0.999800
      0.999800
      0.999800
      0.999800
      0.999800
      0.999800
      0.999800
      0.999800
      0.999800
      0.999800
      0.999800
      0.999800
      0.999800
      0.999800
      0.999800
      0.999800
      0.999800
      0.999800
      0.999800
      0.999800
      0.999800
      0.999800
      0.999800
      0.999800
      0.999800
      0.999800
      0.999800
      0.999800
      0.999800
      0.999800
      0.999800
      0.999800
      0.999800
      0.999800
      0.999800
      0.999800
      0.999800
      0.999800
      0.999800
      0.999800
      0.999800
      0.999800
      0.999800
      0.999800
      0.999800
      0.999800
      0.999800
      0.999800
      0.999800
      0.999800
      0.999800
      0.999800
      0.999800
      0.999800
      0.999800
      0.999800
      0.999800
      0.999800
      0.999800
      0.999800
      0.999800
      0.999800
      0.999800
      0.999800
      0.999800
      0.999800
      0.999800
      0.999800
      0.999800
      0.999800
      0.999800
      0.999800
      0.999800
      0.999800
      0.999800
      0.999800
      0.999800
      0.999800
      0.999800
      0.999800
      0.999800
      0.999800
      0.999800
      0.999800
      0.999800
      0.999800
      0.999800
      0.999800
      0.999800
      0.999800
      0.999800
      0.999800
      0.999800
      0.999800
      0.999800
      0.999800
      0.999800
      0.999800
      0.999800
      0.999800
      0.999800
      0.999800
      0.999800
      0.999800
      0.999800
      0.999800
      0.999800
      0.999800
      0.999800
      0.999800
      0.999800
      0.999800
      0.999800
      0.999800
      0.999800
      0.999800
      0.999800
      0.999800
      0.999800
      0.999800
      0.999800
      0.999800
      0.999800
      0.999800
      0.999800
      0.999800
      0.999800
      0.999800
      0.999800
      0.999800
      0.999800
      0.999800
      0.999800
      0.999800
      0.999800
      0.999800
      0.999800
      0.999800
      0.999800
      0.999800
      0.999800
      0.999800
      0.999800
      0.999800
      0.999800
      0.999800
      0.999800
      0.999800
      0.999800
      0.999800
      0.999800
      0.999800
      0.999800
      0.999800
      0.999800
      0.999800
      0.999800
      0.999800
      0.999800
      0.999800
      0.999800
      0.999800
      0.999800
      0.999800
      0.999800
      0.999800
      0.999800
      0.999800
      0.999800
      0.999800
      0.999800
      0.999800
      0.999800
      0.999800
      0.999800
      0.999800
      0.999800
      0.999800
      0.999800
      0.999800
      0.999800
      0.999800
      0.999800
      0.999800
      0.999800
      0.999800
      0.999800
      0.999800
      0.999800
      0.999800
      0.999800
      0.999800
      0.999800
      0.999800
      0.999800
      0.999800
      0.999800
      0.999800
      0.999800
      0.999800
      0.999800
      0.999800
      0.999800
      0.999800
      0.999800
      0.999800
      0.999800
      0.999800
      0.999800
      0.999800
      0.999800
      0.999800
      0.999800
      0.999800
      0.999800
      0.999800
      0.999800
      0.999800
      0.999800
      0.999800
      0.999800
      0.999800
      0.999800
      0.999800
      0.999800
      0.999800
      0.999800
      0.999800
      0.999800
      0.999800
      0.999800
      0.999800
      0.999800
      0.999800
      0.999800
      0.999800
      0.999800
      0.999800
      0.999800
      0.999800
      0.999800
      0.999800
      0.999800
      0.999800
      0.999800
      0.999800
      0.999800
      0.999800
      0.999800
      0.999800
      0.999800
      0.999800
      0.999800
      0.999800
      0.999800
      0.999800
      0.999800
      0.999800
      0.999800
      0.999800
      0.999800
      0.999800
      0.999800
      0.999800
      0.999800
      0.999800
      0.999800
      0.999800
      0.999800
      0.999800
      0.999800
      0.999800
      0.999800
      0.999800
      0.999800
      0.999800
      0.999800
      0.999800
      0.999800
      0.999800
      0.999800
      0.999800
      0.999800
      0.999800
      0.999800
      0.999800
      0.999800
      0.999800
      0.999800
      0.999800
      0.999800
      0.999800
      0.999800
      0.999800
      0.999800
      0.999800
      0.999800
      0.999800
      0.999800
      0.999800
      0.999800
      0.999800
      0.999800
      0.999800
      0.999800
      0.999800
      0.999800
      0.999800
      0.999800
      0.999800
      0.999800
      0.999800
      0.999800
      0.999800
      0.999800
      0.999800
      0.999800
      0.999800
      0.999800
      0.999800
      0.999800
      0.999800
      0.999800
      0.999800
      0.999800
      0.999800
      0.999800
      0.999800
      0.999800
      0.999800
      0.999800
      0.999800
      0.999800
      0.999800
      0.999800
      0.999800
      0.999800
      0.999800
      0.999800
      0.999800
      0.999800
      0.999800
      0.999800
      0.999800
      0.999800
      0.999800
      0.999800
      0.999800
      0.999800
      0.999800
      0.999800
      0.999800
      0.999800
      0.999800
      0.999800
      0.999800
      0.999800
      0.999800
      0.999800
      0.999800
      0.999800
      0.999800
      0.999800
      0.999800
      0.999800
      0.999800
      0.999800
      0.999800
      0.999800
      0.999800
      0.999800
      0.999800
      0.999800
      0.999800
      0.999800
      0.999800
      0.999800
      0.999800
      0.999800
      0.999800
      0.999800
      0.999800
      0.999800
      0.999800
      0.999800
      0.999800
      0.999800
      0.999800
      0.999800
      0.999800
      0.999800
      0.999800
      0.999800
      0.999800
      0.999800
      0.999800
      0.999800
      0.999800
      0.999800
      0.999800
      0.999800
      0.999800
      0.999800
      0.999800
      0.999800
      0.999800
      0.999800
      0.999800
      0.999800
      0.999800
      0.999800
      0.999800
      0.999800
      0.999800
      0.999800
      0.999800
      0.999800
      0.999800
      0.999800
      0.999800
      0.999800
      0.999800
      0.999800
      0.999800
      0.999800
      0.999800
      0.999800
      0.999800
      0.999800
      0.999800
      0.999800
      0.999800
      0.999800
      0.999800
      0.999800
      0.999800
      0.999800
      0.999800
      0.999800
      0.999800
      0.999800
      0.999800
      0.999792
      0.999795
      0.999790
      0.999800
      0.999800
      0.999800
      0.999790
      0.999795
      0.999792
      0.999800
      0.999800
      0.999800
      0.999800
      0.999800
      0.999800
      0.999800
      0.999800
      0.999800
      0.999800
      0.999800
      0.999800
      0.999800
      0.999800
      0.999800
      0.999800
      0.999800
      0.999800
      0.999800
      0.999800
      0.999800
      0.999800
      0.999800
      0.999800
      0.999800
      0.999800
      0.999800
      0.999800
      0.999800
      0.999800
      0.999800
      0.999800
      0.999800
      0.999800
      0.999800
      0.999800
      0.999800
      0.999800
      0.999800
      0.999800
      0.999800
      0.999800
      0.999800
      0.999800
      0.999800
      0.999800
      0.999800
      0.999800
      0.999800
      0.999800
      0.999800
      0.999800
      0.999800
      0.999800
      0.999800
      0.999800
      0.999800
      0.999800
      0.999800
      0.999745
      0.999800
      0.999800
      0.999800
      0.999800
      0.999800
      0.999800
      0.999800
      0.999800
      0.999800
      0.999800
      0.999800
      0.999800
      0.999800
      0.999800
      0.999800
      0.999800
      0.999800
      0.999800
      0.999800
      0.999800
      0.999800
      0.999800
      0.999800
      0.999800
      0.999800
      0.999800
      0.999800
      0.999800
      0.999800
      0.999800
      0.999800
      0.999800
      0.999800
      0.999800
      0.999800
      0.999800
      0.999800
      0.999800
      0.999800
      0.999800
      0.999800
      0.999800
      0.999800
      0.999800
      0.999800
      0.999800
      0.999800
      0.999800
      0.999800
      0.999800
      0.999800
      0.999800
      0.999800
      0.999800
      0.999800
      0.999800
      0.999800
      0.999800
      0.999731
      0.999715
      0.999720
      0.999713
      0.999738
      0.999800
      0.999738
      0.999713
      0.999720
      0.999715
      0.999731
      0.999800
      0.999800
      0.999800
      0.999800
      0.999800
      0.999800
      0.999800
      0.999800
      0.999800
      0.999800
      0.999800
      0.999800
      0.999800
      0.999800
      0.999800
      0.999800
      0.999800
      0.999800
      0.999800
      0.999800
      0.999800
      0.999800
      0.999800
      0.999800
      0.999800
      0.999800
      0.999800
      0.999800
      0.999800
      0.999800
      0.999800
      0.999800
      0.999800
      0.999800
      0.999800
      0.999800
      0.999800
      0.999800
      0.999800
      0.999800
      0.999800
      0.999800
      0.999800
      0.999800
      0.999800
      0.999800
      0.999800
      0.999800
      0.999800
      0.999800
      0.999800
      0.999733
      0.999732
      0.999800
      0.999800
      0.999800
      0.999800
      0.999800
      0.999603
      0.999800
      0.999800
      0.999800
      0.999800
      0.999800
      0.999732
      0.999733
      0.999800
      0.999800
      0.999800
      0.999800
      0.999800
      0.999800
      0.999800
      0.999800
      0.999800
      0.999800
      0.999800
      0.999800
      0.999800
      0.999800
      0.999800
      0.999800
      0.999800
      0.999800
      0.999800
      0.999800
      0.999800
      0.999800
      0.999800
      0.999800
      0.999800
      0.999800
      0.999800
      0.999800
      0.999800
      0.999800
      0.999800
      0.999800
      0.999800
      0.999800
      0.999800
      0.999800
      0.999800
      0.999800
      0.999800
      0.999800
      0.999800
      0.999800
      0.999800
      0.999800
      0.999800
      0.999800
      0.999800
      0.999800
      0.999752
      0.999800
      0.999800
      0.999581
      0.999556
      0.999564
      0.999552
      0.999594
      0.999800
      0.999594
      0.999552
      0.999564
      0.999556
      0.999581
      0.999800
      0.999800
      0.999752
      0.999800
      0.999800
      0.999800
      0.999800
      0.999800
      0.999800
      0.999800
      0.999800
      0.999800
      0.999800
      0.999800
      0.999800
      0.999800
      0.999800
      0.999800
      0.999800
      0.999800
      0.999800
      0.999800
      0.999800
      0.999800
      0.999800
      0.999800
      0.999800
      0.999800
      0.999800
      0.999800
      0.999800
      0.999800
      0.999800
      0.999800
      0.999800
      0.999800
      0.999800
      0.999800
      0.999800
      0.999800
      0.999800
      0.999800
      0.999800
      0.999800
      0.999800
      0.999800
      0.999800
      0.999800
      0.999800
      0.999756
      0.999800
      0.999581
      0.999584
      0.999800
      0.999800
      0.999800
      0.999800
      0.999800
      0.999233
      0.999800
      0.999800
      0.999800
      0.999800
      0.999800
      0.999584
      0.999581
      0.999800
      0.999756
      0.999800
      0.999800
      0.999800
      0.999800
      0.999800
      0.999800
      0.999800
      0.999800
      0.999800
      0.999800
      0.999800
      0.999800
      0.999800
      0.999800
      0.999800
      0.999800
      0.999800
      0.999800
      0.999800
      0.999800
      0.999800
      0.999800
      0.999800
      0.999800
      0.999800
      0.999800
      0.999800
      0.999800
      0.999800
      0.999800
      0.999800
      0.999800
      0.999800
      0.999800
      0.999800
      0.999800
      0.999800
      0.999800
      0.999800
      0.999800
      0.999800
      0.999800
      0.999800
      0.999800
      0.999756
      0.999800
      0.999611
      0.999800
      0.999800
      0.999192
      0.999144
      0.999162
      0.999137
      0.999226
      0.999800
      0.999226
      0.999137
      0.999162
      0.999144
      0.999192
      0.999800
      0.999800
      0.999611
      0.999800
      0.999756
      0.999800
      0.999800
      0.999800
      0.999800
      0.999800
      0.999800
      0.999800
      0.999800
      0.999800
      0.999800
      0.999800
      0.999800
      0.999800
      0.999800
      0.999800
      0.999800
      0.999800
      0.999800
      0.999800
      0.999800
      0.999800
      0.999800
      0.999800
      0.999800
      0.999800
      0.999800
      0.999800
      0.999800
      0.999800
      0.999800
      0.999800
      0.999800
      0.999800
      0.999800
      0.999800
      0.999800
      0.999800
      0.999800
      0.999800
      0.999800
      0.999800
      0.999800
      0.999752
      0.999800
      0.999617
      0.999800
      0.999187
      0.999205
      0.999800
      0.999800
      0.999800
      0.999800
      0.999800
      0.997732
      0.999800
      0.999800
      0.999800
      0.999800
      0.999800
      0.999205
      0.999187
      0.999800
      0.999617
      0.999800
      0.999752
      0.999800
      0.999800
      0.999800
      0.999800
      0.999800
      0.999800
      0.999800
      0.999800
      0.999800
      0.999800
      0.999800
      0.999800
      0.999800
      0.999800
      0.999800
      0.999800
      0.999800
      0.999800
      0.999800
      0.999800
      0.999800
      0.999800
      0.999800
      0.999800
      0.999800
      0.999800
      0.999800
      0.999800
      0.999800
      0.999800
      0.999800
      0.999800
      0.999800
      0.999800
      0.999800
      0.999800
      0.999800
      0.999800
      0.999800
      0.999788
      0.999735
      0.999800
      0.999617
      0.999800
      0.999248
      0.999800
      0.999800
      0.997628
      0.997488
      0.997552
      0.997454
      0.997805
      0.999800
      0.997805
      0.997454
      0.997552
      0.997488
      0.997628
      0.999800
      0.999800
      0.999248
      0.999800
      0.999617
      0.999800
      0.999735
      0.999788
      0.999800
      0.999800
      0.999800
      0.999800
      0.999800
      0.999800
      0.999800
      0.999800
      0.999800
      0.999800
      0.999800
      0.999800
      0.999800
      0.999800
      0.999800
      0.999800
      0.999800
      0.999800
      0.999800
      0.999800
      0.999800
      0.999800
      0.999800
      0.999800
      0.999800
      0.999800
      0.999800
      0.999800
      0.999800
      0.999800
      0.999800
      0.999800
      0.999800
      0.999800
      0.999800
      0.999800
      0.999800
      0.999800
      0.999800
      0.999605
      0.999800
      0.999253
      0.999800
      0.997572
      0.997762
      0.999800
      0.999800
      0.999800
      0.999800
      0.999800
      0.971468
      0.999800
      0.999800
      0.999800
      0.999800
      0.999800
      0.997762
      0.997572
      0.999800
      0.999253
      0.999800
      0.999605
      0.999800
      0.999800
      0.999800
      0.999800
      0.999800
      0.999800
      0.999800
      0.999800
      0.999800
      0.999800
      0.999800
      0.999800
      0.999800
      0.999800
      0.999800
      0.999800
      0.999800
      0.999800
      0.999800
      0.999800
      0.999800
      0.999800
      0.999800
      0.999800
      0.999800
      0.999800
      0.999800
      0.999800
      0.999800
      0.999800
      0.999800
      0.999800
      0.999800
      0.999800
      0.999800
      0.999800
      0.999800
      0.999800
      0.999800
      0.999491
      0.999800
      0.999800
      0.999601
      0.999800
      0.998308
      0.999800
      0.999800
      0.969144
      0.971096
      0.966006
      0.977120
      0.936104
      0.914219
      0.936104
      0.977120
      0.966006
      0.971096
      0.969144
      0.999800
      0.999800
      0.998308
      0.999800
      0.999601
      0.999800
      0.999800
      0.999491
      0.999800
      0.999800
      0.999800
      0.999800
      0.999800
      0.999800
      0.999800
      0.999800
      0.999800
      0.999800
      0.999800
      0.999800
      0.999800
      0.999800
      0.999800
      0.999800
      0.999800
      0.999800
      0.999800
      0.999800
      0.999800
      0.999800
      0.999800
      0.999800
      0.999800
      0.999800
      0.999800
      0.999800
      0.999800
      0.999800
      0.999800
      0.999800
      0.999800
      0.999800
      0.999788
      0.999800
      0.999491
      0.999800
      0.999800
      0.999800
      0.999800
      0.999380
      0.999800
      0.976118
      0.941121
      0.941152
      0.975063
      0.966953
      0.970556
      0.969448
      0.999800
      0.969448
      0.970556
      0.966953
      0.975063
      0.941152
      0.941121
      0.976118
      0.999800
      0.999380
      0.999800
      0.999800
      0.999800
      0.999800
      0.999491
      0.999800
      0.999788
      0.999800
      0.999800
      0.999800
      0.999800
      0.999800
      0.999800
      0.999800
      0.999800
      0.999800
      0.999800
      0.999800
      0.999800
      0.999800
      0.999800
      0.999800
      0.999800
      0.999800
      0.999800
      0.999800
      0.999800
      0.999800
      0.999800
      0.999800
      0.999800
      0.999800
      0.999800
      0.999800
      0.999800
      0.999800
      0.999800
      0.999800
      0.999735
      0.999800
      0.999800
      0.999800
      0.998450
      0.999800
      0.995672
      0.999800
      0.942350
      0.941281
      0.975966
      0.999800
      0.999800
      0.999800
      0.999800
      0.999800
      0.998588
      0.999800
      0.999800
      0.999800
      0.999800
      0.999800
      0.975966
      0.941281
      0.942350
      0.999800
      0.995672
      0.999800
      0.998450
      0.999800
      0.999800
      0.999800
      0.999735
      0.999800
      0.999800
      0.999800
      0.999800
      0.999800
      0.999800
      0.999800
      0.999800
      0.999800
      0.999800
      0.999800
      0.999800
      0.999800
      0.999800
      0.999800
      0.999800
      0.999800
      0.999800
      0.999800
      0.999800
      0.999800
      0.999800
      0.999800
      0.999800
      0.999800
      0.999800
      0.999800
      0.999800
      0.999800
      0.999800
      0.999752
      0.999800
      0.999605
      0.999800
      0.999800
      0.999800
      0.995737
      0.999800
      0.942620
      0.942500
      0.999800
      0.999800
      0.998966
      0.996661
      0.998142
      0.996986
      0.998083
      0.999800
      0.998083
      0.996986
      0.998142
      0.996661
      0.998966
      0.999800
      0.999800
      0.942500
      0.942620
      0.999800
      0.995737
      0.999800
      0.999800
      0.999800
      0.999605
      0.999800
      0.999752