# vtk DataFile Version 2.0
time_10.vtk
ASCII
DATASET STRUCTURED_GRID
DIMENSIONS      64     64      1
POINTS    4096 float
      0.000000      0.000000      0.000000
      0.000000      0.500000      0.000000
      0.000000      1.000000      0.000000
      0.000000      1.500000      0.000000
      0.000000      2.000000      0.000000
      0.000000      2.500000      0.000000
      0.000000      3.000000      0.000000
      0.000000      3.500000      0.000000
      0.000000      4.000000      0.000000
      0.000000      4.500000      0.000000
      0.000000      5.000000      0.000000
      0.000000      5.500000      0.000000
      0.000000      6.000000      0.000000
      0.000000      6.500000      0.000000
      0.000000      7.000000      0.000000
      0.000000      7.500000      0.000000
      0.000000      8.000000      0.000000
      0.000000      8.500000      0.000000
      0.000000      9.000000      0.000000
      0.000000      9.500000      0.000000
      0.000000     10.000000      0.000000
      0.000000     10.500000      0.000000
      0.000000     11.000000      0.000000
      0.000000     11.500000      0.000000
      0.000000     12.000000      0.000000
      0.000000     12.500000      0.000000
      0.000000     13.000000      0.000000
      0.000000     13.500000      0.000000
      0.000000     14.000000      0.000000
      0.000000     14.500000      0.000000
      0.000000     15.000000      0.000000
      0.000000     15.500000      0.000000
      0.000000     16.000000      0.000000
      0.000000     16.500000      0.000000
      0.000000     17.000000      0.000000
      0.000000     17.500000      0.000000
      0.000000     18.000000      0.000000
      0.000000     18.500000      0.000000
      0.000000     19.000000      0.000000
      0.000000     19.500000      0.000000
      0.000000     20.000000      0.000000
      0.000000     20.500000      0.000000
      0.000000     21.000000      0.000000
      0.000000     21.500000      0.000000
      0.000000     22.000000      0.000000
      0.000000     22.500000      0.000000
      0.000000     23.000000      0.000000
      0.000000     23.500000      0.000000
      0.000000     24.000000      0.000000
      0.000000     24.500000      0.000000
      0.000000     25.000000      0.000000
      0.000000     25.500000      0.000000
      0.000000     26.000000      0.000000
      0.000000     26.500000      0.000000
      0.000000     27.000000      0.000000
      0.000000     27.500000      0.000000
      0.000000     28.000000      0.000000
      0.000000     28.500000      0.000000
      0.000000     29.000000      0.000000
      0.000000     29.500000      0.000000
      0.000000     30.000000      0.000000
      0.000000     30.500000      0.000000
      0.000000     31.000000      0.000000
      0.000000     31.500000      0.000000
      0.500000      0.000000      0.000000
      0.500000      0.500000      0.000000
      0.500000      1.000000      0.000000
      0.500000      1.500000      0.000000
      0.500000      2.000000      0.000000
      0.500000      2.500000      0.000000
      0.500000      3.000000      0.000000
      0.500000      3.500000      0.000000
      0.500000      4.000000      0.000000
      0.500000      4.500000      0.000000
      0.500000      5.000000      0.000000
      0.500000      5.500000      0.000000
      0.500000      6.000000      0.000000
      0.500000      6.500000      0.000000
      0.500000      7.000000      0.000000
      0.500000      7.500000      0.000000
      0.500000      8.000000      0.000000
      0.500000      8.500000      0.000000
      0.500000      9.000000      0.000000
      0.500000      9.500000      0.000000
      0.500000     10.000000      0.000000
      0.500000     10.500000      0.000000
      0.500000     11.000000      0.000000
      0.500000     11.500000      0.000000
      0.500000     12.000000      0.000000
      0.500000     12.500000      0.000000
      0.500000     13.000000      0.000000
      0.500000     13.500000      0.000000
      0.500000     14.000000      0.000000
      0.500000     14.500000      0.000000
      0.500000     15.000000      0.000000
      0.500000     15.500000      0.000000
      0.500000     16.000000      0.000000
      0.500000     16.500000      0.000000
      0.500000     17.000000      0.000000
      0.500000     17.500000      0.000000
      0.500000     18.000000      0.000000
      0.500000     18.500000      0.000000
      0.500000     19.000000      0.000000
      0.500000     19.500000      0.000000
      0.500000     20.000000      0.000000
      0.500000     20.500000      0.000000
      0.500000     21.000000      0.000000
      0.500000     21.500000      0.000000
      0.500000     22.000000      0.000000
      0.500000     22.500000      0.000000
      0.500000     23.000000      0.000000
      0.500000     23.500000      0.000000
      0.500000     24.000000      0.000000
      0.500000     24.500000      0.000000
      0.500000     25.000000      0.000000
      0.500000     25.500000      0.000000
      0.500000     26.000000      0.000000
      0.500000     26.500000      0.000000
      0.500000     27.000000      0.000000
      0.500000     27.500000      0.000000
      0.500000     28.000000      0.000000
      0.500000     28.500000      0.000000
      0.500000     29.000000      0.000000
      0.500000     29.500000      0.000000
      0.500000     30.000000      0.000000
      0.500000     30.500000      0.000000
      0.500000     31.000000      0.000000
      0.500000     31.500000      0.000000
      1.000000      0.000000      0.000000
      1.000000      0.500000      0.000000
      1.000000      1.000000      0.000000
      1.000000      1.500000      0.000000
      1.000000      2.000000      0.000000
      1.000000      2.500000      0.000000
      1.000000      3.000000      0.000000
      1.000000      3.500000      0.000000
      1.000000      4.000000      0.000000
      1.000000      4.500000      0.000000
      1.000000      5.000000      0.000000
      1.000000      5.500000      0.000000
      1.000000      6.000000      0.000000
      1.000000      6.500000      0.000000
      1.000000      7.000000      0.000000
      1.000000      7.500000      0.000000
      1.000000      8.000000      0.000000
      1.000000      8.500000      0.000000
      1.000000      9.000000      0.000000
      1.000000      9.500000      0.000000
      1.000000     10.000000      0.000000
      1.000000     10.500000      0.000000
      1.000000     11.000000      0.000000
      1.000000     11.500000      0.000000
      1.000000     12.000000      0.000000
      1.000000     12.500000      0.000000
      1.000000     13.000000      0.000000
      1.000000     13.500000      0.000000
      1.000000     14.000000      0.000000
      1.000000     14.500000      0.000000
      1.000000     15.000000      0.000000
      1.000000     15.500000      0.000000
      1.000000     16.000000      0.000000
      1.000000     16.500000      0.000000
      1.000000     17.000000      0.000000
      1.000000     17.500000      0.000000
      1.000000     18.000000      0.000000
      1.000000     18.500000      0.000000
      1.000000     19.000000      0.000000
      1.000000     19.500000      0.000000
      1.000000     20.000000      0.000000
      1.000000     20.500000      0.000000
      1.000000     21.000000      0.000000
      1.000000     21.500000      0.000000
      1.000000     22.000000      0.000000
      1.000000     22.500000      0.000000
      1.000000     23.000000      0.000000
      1.000000     23.500000      0.000000
      1.000000     24.000000      0.000000
      1.000000     24.500000      0.000000
      1.000000     25.000000      0.000000
      1.000000     25.500000      0.000000
      1.000000     26.000000      0.000000
      1.000000     26.500000      0.000000
      1.000000     27.000000      0.000000
      1.000000     27.500000      0.000000
      1.000000     28.000000      0.000000
      1.000000     28.500000      0.000000
      1.000000     29.000000      0.000000
      1.000000     29.500000      0.000000
      1.000000     30.000000      0.000000
      1.000000     30.500000      0.000000
      1.000000     31.000000      0.000000
      1.000000     31.500000      0.000000
      1.500000      0.000000      0.000000
      1.500000      0.500000      0.000000
      1.500000      1.000000      0.000000
      1.500000      1.500000      0.000000
      1.500000      2.000000      0.000000
      1.500000      2.500000      0.000000
      1.500000      3.000000      0.000000
      1.500000      3.500000      0.000000
      1.500000      4.000000      0.000000
      1.500000      4.500000      0.000000
      1.500000      5.000000      0.000000
      1.500000      5.500000      0.000000
      1.500000      6.000000      0.000000
      1.500000      6.500000      0.000000
      1.500000      7.000000      0.000000
      1.500000      7.500000      0.000000
      1.500000      8.000000      0.000000
      1.500000      8.500000      0.000000
      1.500000      9.000000      0.000000
      1.500000      9.500000      0.000000
      1.500000     10.000000      0.000000
      1.500000     10.500000      0.000000
      1.500000     11.000000      0.000000
      1.500000     11.500000      0.000000
      1.500000     12.000000      0.000000
      1.500000     12.500000      0.000000
      1.500000     13.000000      0.000000
      1.500000     13.500000      0.000000
      1.500000     14.000000      0.000000
      1.500000     14.500000      0.000000
      1.500000     15.000000      0.000000
      1.500000     15.500000      0.000000
      1.500000     16.000000      0.000000
      1.500000     16.500000      0.000000
      1.500000     17.000000      0.000000
      1.500000     17.500000      0.000000
      1.500000     18.000000      0.000000
[...]
POINT_DATA  4096
SCALARS CON float 1
LOOKUP_TABLE default
      0.999800
      0.999800
      0.999800
      0.999800
      0.999800
      0.999800
      0.999800
      0.999800
      0.999800
      0.999800
      0.999800
      0.999800
      0.999800
      0.999800
      0.999800
      0.999800
      0.999800
      0.999800
      0.999800
      0.999800
      0.999800
      0.999800
      0.999800
      0.999800
      0.999800
      0.999800
      0.999800
      0.999800
      0.999800
      0.999800
      0.999800
      0.999800
      0.999800
      0.999800
      0.999800
      0.999800
      0.999800
      0.999800
      0.999800
      0.999800
      0.999800
      0.999800
      0.999800
      0.999800
      0.999800
      0.999800
      0.999800
      0.999800
      0.999800
      0.999800
      0.999800
      0.999800
      0.999800
      0.999800
      0.999800
      0.999800
      0.999800
      0.999800
      0.999800
      0.999800
      0.999800
      0.999800
      0.999800
      0.999800
      0.999800
      0.999800
      0.999800
      0.999800
      0.999800
      0.999800
      0.999800
      0.999800
      0.999800
      0.999800
      0.999800
      0.999800
      0.999800
      0.999800
      0.999800
      0.999800
      0.999800
      0.999800
      0.999800
      0.999800
      0.999800
      0.999800
      0.999800
      0.999800
      0.999800
      0.999800
      0.999800
      0.999800
      0.999800
      0.999800
      0.999800
      0.999800
      0.999800
      0.999800
      0.999800
      0.999800
      0.999800
      0.999800
      0.999800
      0.999800
      0.999800
      0.999800
      0.999800
      0.999800
      0.999800
      0.999800
      0.999800
      0.999800
      0.999800
      0.999800
      0.999800
      0.999800
      0.999800
      0.999800
      0.999800
      0.999800
      0.999800
      0.999800
      0.999800
      0.999800
      0.999800
      0.999800
      0.999800
      0.999800
      0.999800
      0.999800
      0.999800
      0.999800
      0.999800
      0.999800
      0.999800
      0.999800
      0.999800
      0.999800
      0.999800
      0.999800
      0.999800
      0.999800
      0.999800
      0.999800
      0.999800
      0.999800
      0.999800
      0.999800
      0.999800
      0.999800
      0.999800
      0.999800
      0.999800
      0.999800
      0.999800
      0.999800
      0.999800
      0.999800
      0.999800
      0.999800
      0.999800
      0.999800
      0.999800
      0.999800
      0.999800
      0.999800
      0.999800
      0.999800
      0.999800
      0.999800
      0.999800
      0.999800
      0.999800
      0.999800
      0.999800
      0.999800
      0.999800
      0.999800
      0.999800
      0.999800
      0.999800
      0.999800
      0.999800
      0.999800
      0.999800
      0.999800
      0.999800
      0.999800
      0.999800
      0.999800
      0.999800
      0.999800
      0.999800
      0.999800
      0.999800
      0.999800
      0.999800
      0.999800
      0.999800
      0.999800
      0.999800
      0.999800
      0.999800
      0.999800
      0.999800
      0.999800
      0.999800
      0.999800
      0.999800
      0.999800
      0.999800
      0.999800
      0.999800
      0.999800
      0.999800
      0.999800
      0.999800
      0.999800
      0.999800
      0.999800
      0.999800
      0.999800
      0.999800
      0.999800
      0.999800
      0.999800
      0.999800
      0.999800
      0.999800
      0.999800
      0.999800
      0.999800
      0.999800
      0.999800
      0.999800
      0.999800
      0.999800
      0.999800
      0.999800
      0.999800
      0.999800
      0.999800
      0.999800
      0.999800
      0.999800
      0.999800
      0.999800
      0.999800
      0.999800
      0.999800
      0.999800
      0.999800
      0.999800
      0.999800
      0.999800
      0.999800
      0.999800
      0.999800
      0.999800
      0.999800
      0.999800
      0.999800
      0.999800
      0.999800
      0.999800
      0.999800
      0.999800
      0.999800
      0.999800
      0.999800
      0.999800
      0.999800
      0.999800
      0.999800
      0.999800
      0.999800
      0.999800
      0.999800
      0.999800
      0.999800
      0.999800
      0.999800
      0.999800
      0.999800
      0.999800
      0.999800
      0.999800
      0.999800
      0.999800
      0.999800
      0.999800
      0.999800
      0.999800
      0.999800
      0.999800
      0.999800
      0.999800
      0.999800
      0.999800
      0.999800
      0.999800
      0.999800
      0.999800
      0.999800
      0.999800
      0.999800
      0.999800
      0.999800
      0.999800
      0.999800
      0.999800
      0.999800
      0.999800
      0.999800
      0.999800
      0.999800
      0.999800
      0.999800
      0.999800
      0.999800
      0.999800
      0.999800
      0.999800
      0.999800
      0.999800
      0.999800
      0.999800
      0.999800
      0.999800
      0.999800
      0.999800
      0.999800
      0.999800
      0.999800
      0.999800
      0.999800
      0.999800
      0.999800
      0.999800
      0.999800
      0.999800
      0.999800
      0.999800
      0.999800
      0.999800
      0.999800
      0.999800
      0.999800
      0.999800
      0.999800
      0.999800
      0.999800
      0.999800
      0.999800
      0.999800
      0.999800
      0.999800
      0.999800
      0.999800
      0.999800
      0.999800
      0.999800
      0.999800
      0.999800
      0.999800
      0.999800
      0.999800
      0.999800
      0.999800
      0.999800
      0.999800
      0.999800
      0.999800
      0.999800
      0.999800
      0.999800
      0.999800
      0.999800
      0.999800
      0.999800
      0.999800
      0.999800
      0.999800
      0.999800
      0.999800
      0.999800
      0.999800
      0.999800
      0.999800
      0.999800
      0.999800
      0.999800
      0.999800
      0.999800
      0.999800
      0.999800
      0.999800
      0.999800
      0.999800
      0.999800
      0.999800
      0.999800
      0.999800
      0.999800
      0.999800
      0.999800
      0.999800
      0.999800
      0.999800
      0.999800
      0.999800
      0.999800
      0.999796
      0.999800
      0.999800
      0.999800
      0.999800
      0.999800
      0.999796
      0.999800
      0.999800
      0.999800
      0.999800
      0.999800
      0.999800
      0.999800
      0.999800
      0.999800
      0.999800
      0.999800
      0.999800
      0.999800
      0.999800
      0.999800
      0.999800
      0.999800
      0.999800
      0.999800
      0.999800
      0.999800
      0.999800
      0.999800
      0.999800
      0.999800
      0.999800
      0.999800
      0.999800
      0.999800
      0.999800
      0.999800
      0.999800
      0.999800
      0.999800
      0.999800
      0.999800
      0.999800
      0.999800
      0.999800
      0.999800
      0.999800
      0.999800
      0.999800
      0.999800
      0.999800
      0.999800
      0.999800
      0.999800
      0.999800
      0.999800
      0.999800
      0.999800
      0.999800
      0.999800
      0.999800
      0.999800
      0.999800
      0.999800
      0.999800
      0.999800
      0.999800
      0.999800
      0.999800
      0.999800
      0.999800
      0.999800
      0.999800
      0.999800
      0.999800
      0.999800
      0.999800
      0.999800
      0.999800
      0.999800
      0.999800
      0.999800
      0.999800
      0.999800
      0.999800
      0.999800
      0.999800
      0.999800
      0.999800
      0.999800
      0.999800
      0.999800
      0.999800
      0.999800
      0.999800
      0.999800
      0.999800
      0.999800
      0.999800
      0.999800
      0.999800
      0.999800
      0.999800
      0.999800
      0.999800
      0.999800
      0.999800
      0.999800
      0.999800
      0.999800
      0.999800
      0.999800
      0.999800
      0.999800
      0.999800
      0.999800
      0.999800
      0.999800
      0.999800
      0.999800
      0.999800
      0.999800
      0.999800
      0.999800
      0.999800
      0.999800
      0.999796
      0.999774
      0.999800
      0.999800
      0.999800
      0.999800
      0.999800
      0.999774
      0.999796
      0.999800
      0.999800
      0.999800
      0.999800
      0.999800
      0.999800
      0.999800
      0.999800
      0.999800
      0.999800
      0.999800
      0.999800
      0.999800
      0.999800
      0.999800
      0.999800
      0.999800
      0.999800
      0.999800
      0.999800
      0.999800
      0.999800
      0.999800
      0.999800
      0.999800
      0.999800
      0.999800
      0.999800
      0.999800
      0.999800
      0.999800
      0.999800
      0.999800
      0.999800
      0.999800
      0.999800
      0.999800
      0.999800
      0.999800
      0.999800
      0.999800
      0.999800
      0.999800
      0.999800
      0.999800
      0.999800
      0.999800
      0.999800
      0.999800
      0.999800
      0.999800
      0.999800
      0.999800
      0.999800
      0.999800
      0.999800
      0.999800
      0.999800
      0.999800
      0.999800
      0.999800
      0.999800
      0.999800
      0.999800
      0.999800
      0.999800
      0.999800
      0.999800
      0.999800
      0.999800
      0.999800
      0.999800
      0.999800
      0.999800
      0.999800
      0.999800
      0.999800
      0.999800
      0.999800
      0.999800
      0.999800
      0.999800
      0.999800
      0.999800
      0.999800
      0.999800
      0.999800
      0.999800
      0.999800
      0.999800
      0.999800
      0.999800
      0.999800
      0.999800
      0.999800
      0.999800
      0.999800
      0.999800
      0.999800
      0.999800
      0.999800
      0.999800
      0.999800
      0.999800
      0.999800
      0.999800
      0.999800
      0.999800
      0.999800
      0.999800
      0.999800
      0.999800
      0.999800
      0.999800
      0.999800
      0.999800
      0.999800
      0.999800
      0.999800
      0.999756
      0.999730
      0.999782
      0.999800
      0.999800
      0.999800
      0.999782
      0.999730
      0.999756
      0.999800
      0.999800
      0.999800
      0.999800
      0.999800
      0.999800
      0.999800
      0.999800
      0.999800
      0.999800
      0.999800
      0.999800
      0.999800
      0.999800
      0.999800
      0.999800
      0.999800
      0.999800
      0.999800
      0.999800
      0.999800
      0.999800
      0.999800
      0.999800
      0.999800
      0.999800
      0.999800
      0.999800
      0.999800
      0.999800
      0.999800
      0.999800
      0.999800
      0.999800
      0.999800
      0.999800
      0.999800
      0.999800
      0.999800
      0.999800
      0.999800
      0.999800
      0.999800
      0.999800
      0.999800
      0.999800
      0.999800
      0.999800
      0.999800
      0.999800
      0.999800
      0.999800
      0.999800
      0.999791
      0.999800
      0.999800
      0.999800
      0.999800
      0.999800
      0.999800
      0.999800
      0.999800
      0.999800
      0.999800
      0.999800
      0.999791
      0.999800
      0.999800
      0.999800
      0.999800
      0.999800
      0.999800
      0.999800
      0.999800
      0.999800
      0.999800
      0.999800
      0.999800
      0.999800
      0.999800
      0.999800
      0.999800
      0.999800
      0.999800
      0.999800
      0.999800
      0.999800
      0.999800
      0.999800
      0.999800
      0.999800
      0.999800
      0.999800
      0.999800
      0.999800
      0.999800
      0.999800
      0.999800
      0.999800
      0.999800
      0.999800
      0.999800
      0.999800
      0.999800
      0.999800
      0.999800
      0.999800
      0.999800
      0.999800
      0.999800
      0.999800
      0.999800
      0.999800
      0.999800
      0.999800
      0.999800
      0.999800
      0.999800
      0.999800
      0.999678
      0.999646
      0.999744
      0.999800
      0.999800
      0.999800
      0.999744
      0.999646
      0.999678
      0.999800
      0.999800
      0.999800
      0.999800
      0.999800
      0.999800
      0.999800
      0.999800
      0.999800
      0.999800
      0.999800
      0.999800
      0.999800
      0.999800
      0.999800
      0.999800
      0.999800
      0.999800
      0.999800
      0.999800
      0.999800
      0.999800
      0.999800
      0.999800
      0.999800
      0.999800
      0.999800
      0.999800
      0.999800
      0.999800
      0.999800
      0.999800
      0.999800
      0.999800
      0.999800
      0.999800
      0.999800
      0.999800
      0.999800
      0.999800
      0.999800
      0.999800
      0.999800
      0.999800
      0.999800
      0.999800
      0.999800
      0.999800
      0.999800
      0.999800
      0.999800
      0.999800
      0.999800
      0.999746
      0.999800
      0.999800
      0.999800
      0.999800
      0.999800
      0.999800
      0.999800
      0.999800
      0.999800
      0.999800
      0.999800
      0.999746
      0.999800
      0.999800
      0.999800
      0.999800
      0.999800
      0.999800
      0.999800
      0.999800
      0.999800
      0.999800
      0.999800
      0.999800
      0.999800
      0.999800
      0.999800
      0.999800
      0.999800
      0.999800
      0.999800
      0.999800
      0.999800
      0.999800
      0.999800
      0.999800
      0.999800
      0.999800
      0.999800
      0.999800
      0.999800
      0.999800
      0.999800
      0.999800
      0.999800
      0.999800
      0.999800
      0.999800
      0.999800
      0.999800
      0.999800
      0.999800
      0.999800
      0.999800
      0.999800
      0.999800
      0.999800
      0.999800
      0.999800
      0.999800
      0.999800
      0.999800
      0.999800
      0.999800
      0.999797
      0.999498
      0.999416
      0.999549
      0.999703
      0.999768
      0.999703
      0.999549
      0.999416
      0.999498
      0.999797
      0.999800
      0.999800
      0.999800
      0.999800
      0.999800
      0.999800
      0.999800
      0.999800
      0.999800
      0.999800
      0.999800
      0.999800
      0.999800
      0.999800
      0.999800
      0.999800
      0.999800
      0.999800
      0.999800
      0.999800
      0.999800
      0.999800
      0.999800
      0.999800
      0.999800
      0.999800
      0.999800
      0.999800
      0.999800
      0.999800
      0.999800
      0.999800
      0.999800
      0.999800
      0.999800
      0.999800
      0.999800
      0.999800
      0.999800
      0.999800
      0.999800
      0.999800
      0.999800
      0.999800
      0.999800
      0.999800
      0.999800
      0.999800
      0.999800
      0.999800
      0.999800
      0.999781
      0.999507
      0.999599
      0.999564
      0.998969
      0.998040
      0.997230
      0.996916
      0.997230
      0.998040
      0.998969
      0.999564
      0.999599
      0.999507
      0.999781
      0.999800
      0.999800
      0.999800
      0.999800
      0.999800
      0.999800
      0.999800
      0.999800
      0.999800
      0.999800
      0.999800
      0.999800
      0.999800
      0.999800
      0.999800
      0.999800
      0.999800
      0.999800
      0.999800
      0.999800
      0.999800
      0.999800
      0.999800
      0.999800
      0.999800
      0.999800
      0.999800
      0.999800
      0.999800
      0.999800
      0.999800
      0.999800
      0.999800
      0.999800
      0.999800
      0.999800
      0.999800
      0.999800
      0.999800
      0.999800
      0.999800
      0.999800
      0.999800
      0.999800
      0.999800
      0.999800
      0.999800
      0.999800
      0.999554
      0.999264
      0.998336
      0.995699
      0.991826
      0.987428
      0.982907
      0.979215
      0.977753
      0.979215
      0.982907
      0.987428
      0.991826
      0.995699
      0.998336
      0.999264
      0.999554
      0.999800
      0.999800
      0.999800
      0.999800
      0.999800
      0.999800
      0.999800
      0.999800
      0.999800
      0.999800
      0.999800
      0.999800
      0.999800
      0.999800
      0.999800
      0.999800
      0.999800
      0.999800
      0.999800
      0.999800
      0.999800
      0.999800
      0.999800
      0.999800
      0.999800
      0.999800
      0.999800
      0.999800
      0.999800
      0.999800
      0.999800
      0.999800
      0.999800
      0.999800
      0.999800
      0.999800
      0.999800
      0.999800
      0.999800
      0.999800
      0.999800
      0.999800
      0.999800
      0.999800
      0.999800
      0.999776
      0.999264
      0.998052
      0.994085
      0.985785
      0.971494
      0.948437
      0.917608
      0.885385
      0.860880
      0.851755
      0.860880
      0.885385
      0.917608
      0.948437
      0.971494
      0.985785
      0.994085
      0.998052
      0.999264
      0.999776
      0.999800
      0.999800
      0.999800
      0.999800
      0.999800
      0.999800
      0.999800
      0.999800
      0.999800
      0.999800
      0.999800
      0.999800
      0.999800
      0.999800
      0.999800
      0.999800
      0.999800
      0.999800
      0.999800
      0.999800
      0.999800
      0.999800
      0.999800
      0.999800
      0.999800
      0.999800
      0.999800
      0.999800
      0.999800
      0.999800
      0.999800
      0.999800
      0.999800
      0.999800
      0.999800
      0.999800
      0.999800
      0.999800
      0.999800
      0.999800
      0.999800
      0.999800
      0.999666
      0.998832
      0.995943
      0.986712
      0.964266
      0.915981
      0.838692
      0.754929
      0.690311
      0.653833
      0.640408
      0.638047
      0.640408
      0.653833
      0.690311
      0.754929
      0.838692
      0.915981
      0.964266
      0.986712
      0.995943
      0.998832
      0.999666
      0.999800
      0.999800
      0.999800
      0.999800
      0.999800
      0.999800
      0.999800
      0.999800
      0.999800
      0.999800
      0.999800
      0.999800
      0.999800
      0.999800
      0.999800
      0.999800
      0.999800
      0.999800
      0.999800
      0.999800
      0.999800
      0.999800
      0.999800
      0.999800
      0.999800
      0.999800
      0.999800
      0.999800
      0.999800
      0.999800
      0.999800
      0.999800
      0.999800
      0.999800
      0.999800
      0.999800
      0.999800
      0.999800
      0.999800
      0.999800
      0.999625
      0.998513
      0.993803
      0.977234
      0.930001
      0.829891
      0.704657
      0.637134
      0.663602
      0.726523
      0.779621
      0.812619
      0.823769
      0.812619
      0.779621
      0.726523
      0.663602
      0.637134
      0.704657
      0.829891
      0.930001
      0.977234
      0.993803
      0.998513
      0.999625
      0.999800
      0.999800
      0.999800
      0.999800
      0.999800
      0.999800
      0.999800
      0.999800
      0.999800
      0.999800
      0.999800
      0.999800
      0.999800
      0.999800
      0.999800
      0.999800
      0.999800
      0.999800
      0.999800
      0.999800
      0.999800
      0.999800
      0.999800
      0.999800
      0.999800
      0.999800
      0.999800
      0.999800
      0.999800
      0.999800
      0.999800
      0.999800
      0.999800
      0.999800
      0.999800
      0.999800
      0.999800
      0.999800
      0.999666
      0.998513
      0.992857
      0.970095
      0.897733
      0.751922
      0.638763
      0.688250
      0.804744
      0.890730
      0.937580
      0.959761
      0.969504
      0.972231
      0.969504
      0.959761
      0.937580
      0.890730
      0.804744
      0.688250
      0.638763
      0.751922
      0.897733
      0.970095
      0.992857
      0.998513
      0.999666
      0.999800
      0.999800
      0.999800
      0.999800