# vtk DataFile Version 2.0
time_10.vtk
ASCII
DATASET STRUCTURED_GRID
DIMENSIONS      64     64      1
POINTS    4096 float
      0.000000      0.000000      0.000000
      0.000000      0.500000      0.000000
      0.000000      1.000000      0.000000
      0.000000      1.500000      0.000000
      0.000000      2.000000      0.000000
      0.000000      2.500000      0.000000
      0.000000      3.000000      0.000000
      0.000000      3.500000      0.000000
      0.000000      4.000000      0.000000
      0.000000      4.500000      0.000000
      0.000000      5.000000      0.000000
      0.000000      5.500000      0.000000
      0.000000      6.000000      0.000000
      0.000000      6.500000      0.000000
      0.000000      7.000000      0.000000
      0.000000      7.500000      0.000000
      0.000000      8.000000      0.000000
      0.000000      8.500000      0.000000
      0.000000      9.000000      0.000000
      0.000000      9.500000      0.000000
      0.000000     10.000000      0.000000
      0.000000     10.500000      0.000000
      0.000000     11.000000      0.000000
      0.000000     11.500000      0.000000
      0.000000     12.000000      0.000000
      0.000000     12.500000      0.000000
      0.000000     13.000000      0.000000
      0.000000     13.500000      0.000000
      0.000000     14.000000      0.000000
      0.000000     14.500000      0.000000
      0.000000     15.000000      0.000000
      0.000000     15.500000      0.000000
      0.000000     16.000000      0.000000
      0.000000     16.500000      0.000000
      0.000000     17.000000      0.000000
      0.000000     17.500000      0.000000
      0.000000     18.000000      0.000000
      0.000000     18.500000      0.000000
      0.000000     19.000000      0.000000
      0.000000     19.500000      0.000000
      0.000000     20.000000      0.000000
      0.000000     20.500000      0.000000
      0.000000     21.000000      0.000000
      0.000000     21.500000      0.000000
      0.000000     22.000000      0.000000
      0.000000     22.500000      0.000000
      0.000000     23.000000      0.000000
      0.000000     23.500000      0.000000
      0.000000     24.000000      0.000000
      0.000000     24.500000      0.000000
      0.000000     25.000000      0.000000
      0.000000     25.500000      0.000000
      0.000000     26.000000      0.000000
      0.000000     26.500000      0.000000
      0.000000     27.000000      0.000000
      0.000000     27.500000      0.000000
      0.000000     28.000000      0.000000
      0.000000     28.500000      0.000000
      0.000000     29.000000      0.000000
      0.000000     29.500000      0.000000
      0.000000     30.000000      0.000000
      0.000000     30.500000      0.000000
      0.000000     31.000000      0.000000
      0.000000     31.500000      0.000000
      0.500000      0.000000      0.000000
      0.500000      0.500000      0.000000
      0.500000      1.000000      0.000000
      0.500000      1.500000      0.000000
      0.500000      2.000000      0.000000
      0.500000      2.500000      0.000000
      0.500000      3.000000      0.000000
      0.500000      3.500000      0.000000
      0.500000      4.000000      0.000000
      0.500000      4.500000      0.000000
      0.500000      5.000000      0.000000
      0.500000      5.500000      0.000000
      0.500000      6.000000      0.000000
      0.500000      6.500000      0.000000
      0.500000      7.000000      0.000000
      0.500000      7.500000      0.000000
      0.500000      8.000000      0.000000
      0.500000      8.500000      0.000000
      0.500000      9.000000      0.000000
      0.500000      9.500000      0.000000
      0.500000     10.000000      0.000000
      0.500000     10.500000      0.000000
      0.500000     11.000000      0.000000
      0.500000     11.500000      0.000000
      0.500000     12.000000      0.000000
      0.500000     12.500000      0.000000
      0.500000     13.000000      0.000000
      0.500000     13.500000      0.000000
      0.500000     14.000000      0.000000
      0.500000     14.500000      0.000000
      0.500000     15.000000      0.000000
      0.500000     15.500000      0.000000
      0.500000     16.000000      0.000000
      0.500000     16.500000      0.000000
      0.500000     17.000000      0.000000
      0.500000     17.500000      0.000000
      0.500000     18.000000      0.000000
      0.500000     18.500000      0.000000
      0.500000     19.000000      0.000000
      0.500000     19.500000      0.000000
      0.500000     20.000000      0.000000
      0.500000     20.500000      0.000000
      0.500000     21.000000      0.000000
      0.500000     21.500000      0.000000
      0.500000     22.000000      0.000000
      0.500000     22.500000      0.000000
      0.500000     23.000000      0.000000
      0.500000     23.500000      0.000000
      0.500000     24.000000      0.000000
      0.500000     24.500000      0.000000
      0.500000     25.000000      0.000000
      0.500000     25.500000      0.000000
      0.500000     26.000000      0.000000
      0.500000     26.500000      0.000000
      0.500000     27.000000      0.000000
      0.500000     27.500000      0.000000
      0.500000     28.000000      0.000000
      0.500000     28.500000      0.000000
      0.500000     29.000000      0.000000
      0.500000     29.500000      0.000000
      0.500000     30.000000      0.000000
      0.500000     30.500000      0.000000
      0.500000     31.000000      0.000000
      0.500000     31.500000      0.000000
      1.000000      0.000000      0.000000
      1.000000      0.500000      0.000000
      1.000000      1.000000      0.000000
      1.000000      1.500000      0.000000
      1.000000      2.000000      0.000000
      1.000000      2.500000      0.000000
      1.000000      3.000000      0.000000
      1.000000      3.500000      0.000000
      1.000000      4.000000      0.000000
      1.000000      4.500000      0.000000
      1.000000      5.000000      0.000000
      1.000000      5.500000      0.000000
      1.000000      6.000000      0.000000
      1.000000      6.500000      0.000000
      1.000000      7.000000      0.000000
      1.000000      7.500000      0.000000
      1.000000      8.000000      0.000000
      1.000000      8.500000      0.000000
      1.000000      9.000000      0.000000
      1.000000      9.500000      0.000000
      1.000000     10.000000      0.000000
      1.000000     10.500000      0.000000
      1.000000     11.000000      0.000000
      1.000000     11.500000      0.000000
      1.000000     12.000000      0.000000
      1.000000     12.500000      0.000000
      1.000000     13.000000      0.000000
      1.000000     13.500000      0.000000
      1.000000     14.000000      0.000000
      1.000000     14.500000      0.000000
      1.000000     15.000000      0.000000
      1.000000     15.500000      0.000000
      1.000000     16.000000      0.000000
      1.000000     16.500000      0.000000
      1.000000     17.000000      0.000000
      1.000000     17.500000      0.000000
      1.000000     18.000000      0.000000
      1.000000     18.500000      0.000000
      1.000000     19.000000      0.000000
      1.000000     19.500000      0.000000
      1.000000     20.000000      0.000000
      1.000000     20.500000      0.000000
      1.000000     21.000000      0.000000
      1.000000     21.500000      0.000000
      1.000000     22.000000      0.000000
      1.000000     22.500000      0.000000
      1.000000     23.000000      0.000000
      1.000000     23.500000      0.000000
      1.000000     24.000000      0.000000
      1.000000     24.500000      0.000000
      1.000000     25.000000      0.000000
      1.000000     25.500000      0.000000
      1.000000     26.000000      0.000000
      1.000000     26.500000      0.000000
      1.000000     27.000000      0.000000
      1.000000     27.500000      0.000000
      1.000000     28.000000      0.000000
      1.000000     28.500000      0.000000
      1.000000     29.000000      0.000000
      1.000000     29.500000      0.000000
      1.000000     30.000000      0.000000
      1.000000     30.500000      0.000000
      1.000000     31.000000      0.000000
      1.000000     31.500000      0.000000
      1.500000      0.000000      0.000000
      1.500000      0.500000      0.000000
      1.500000      1.000000      0.000000
      1.500000      1.500000      0.000000
      1.500000      2.000000      0.000000
      1.500000      2.500000      0.000000
      1.500000      3.000000      0.000000
      1.500000      3.500000      0.000000
      1.500000      4.000000      0.000000
      1.500000      4.500000      0.000000
      1.500000      5.000000      0.000000
      1.500000      5.500000      0.000000
      1.500000      6.000000      0.000000
      1.500000      6.500000      0.000000
      1.500000      7.000000      0.000000
      1.500000      7.500000      0.000000
      1.500000      8.000000      0.000000
      1.500000      8.500000      0.000000
      1.500000      9.000000      0.000000
      1.500000      9.500000      0.000000
      1.500000     10.000000      0.000000
      1.500000     10.500000      0.000000
      1.500000     11.000000      0.000000
      1.500000     11.500000      0.000000
      1.500000     12.000000      0.000000
      1.500000     12.500000      0.000000
      1.500000     13.000000      0.000000
      1.500000     13.500000      0.000000
      1.500000     14.000000      0.000000
      1.500000     14.500000      0.000000
      1.500000     15.000000      0.000000
      1.500000     15.500000      0.000000
      1.500000     16.000000      0.000000
      1.500000     16.500000      0.000000
      1.500000     17.000000      0.000000
      1.500000     17.500000      0.000000
      1.500000     18.000000      0.000000
[...]
POINT_DATA  4096
SCALARS CON float 1
LOOKUP_TABLE default
      0.999800
      0.999800
      0.999800
      0.999800
      0.999800
      0.999800
      0.999800
      0.999800
      0.999800
      0.999800
      0.999800
      0.999800
      0.999800
      0.999800
      0.999800
      0.999800
      0.999800
      0.999745
      0.999800
      0.999800
      0.999736
      0.999800
      0.999729
      0.999800
      0.999707
      0.999705
      0.999800
      0.999800
      0.999800
      0.999800
      0.999800
      0.999700
      0.999800
      0.999800
      0.999800
      0.999800
      0.999800
      0.999705
      0.999707
      0.999800
      0.999729
      0.999800
      0.999736
      0.999800
      0.999800
      0.999745
      0.999800
      0.999800
      0.999800
      0.999800
      0.999800
      0.999800
      0.999800
      0.999800
      0.999800
      0.999800
      0.999800
      0.999800
      0.999800
      0.999800
      0.999800
      0.999800
      0.999800
      0.999800
      0.999800
      0.999800
      0.999800
      0.999800
      0.999800
      0.999800
      0.999800
      0.999800
      0.999800
      0.999800
      0.999800
      0.999800
      0.999800
      0.999800
      0.999800
      0.999800
      0.999800
      0.999800
      0.999735
      0.999732
      0.999800
      0.999733
      0.999800
      0.999722
      0.999800
      0.999800
      0.999696
      0.999685
      0.999688
      0.999684
      0.999699
      0.999800
      0.999699
      0.999684
      0.999688
      0.999685
      0.999696
      0.999800
      0.999800
      0.999722
      0.999800
      0.999733
      0.999800
      0.999732
      0.999735
      0.999800
      0.999800
      0.999800
      0.999800
      0.999800
      0.999800
      0.999800
      0.999800
      0.999800
      0.999800
      0.999800
      0.999800
      0.999800
      0.999800
      0.999800
      0.999800
      0.999800
      0.999800
      0.999800
      0.999800
      0.999800
      0.999800
      0.999800
      0.999800
      0.999800
      0.999800
      0.999800
      0.999800
      0.999800
      0.999800
      0.999800
      0.999800
      0.999800
      0.999800
      0.999800
      0.999800
      0.999743
      0.999800
      0.999800
      0.999734
      0.999800
      0.999726
      0.999800
      0.999702
      0.999700
      0.999800
      0.999800
      0.999800
      0.999800
      0.999800
      0.999692
      0.999800
      0.999800
      0.999800
      0.999800
      0.999800
      0.999700
      0.999702
      0.999800
      0.999726
      0.999800
      0.999734
      0.999800
      0.999800
      0.999743
      0.999800
      0.999800
      0.999800
      0.999800
      0.999800
      0.999800
      0.999800
      0.999800
      0.999800
      0.999800
      0.999800
      0.999800
      0.999800
      0.999800
      0.999800
      0.999800
      0.999800
      0.999800
      0.999800
      0.999800
      0.999800
      0.999800
      0.999800
      0.999800
      0.999800
      0.999800
      0.999800
      0.999800
      0.999800
      0.999800
      0.999800
      0.999800
      0.999800
      0.999800
      0.999800
      0.999800
      0.999732
      0.999728
      0.999800
      0.999728
      0.999800
      0.999716
      0.999800
      0.999800
      0.999686
      0.999675
      0.999678
      0.999674
      0.999690
      0.999800
      0.999690
      0.999674
      0.999678
      0.999675
      0.999686
      0.999800
      0.999800
      0.999716
      0.999800
      0.999728
      0.999800
      0.999728
      0.999732
      0.999800
      0.999800
      0.999800
      0.999800
      0.999800
      0.999800
      0.999800
      0.999800
      0.999800
      0.999800
      0.999800
      0.999800
      0.999800
      0.999800
      0.999800
      0.999800
      0.999800
      0.999800
      0.999800
      0.999800
      0.999800
      0.999800
      0.999800
      0.999800
      0.999800
      0.999800
      0.999800
      0.999800
      0.999800
      0.999800
      0.999800
      0.999800
      0.999800
      0.999800
      0.999800
      0.999800
      0.999741
      0.999800
      0.999800
      0.999729
      0.999800
      0.999719
      0.999800
      0.999690
      0.999689
      0.999800
      0.999800
      0.999800
      0.999800
      0.999800
      0.999676
      0.999800
      0.999800
      0.999800
      0.999800
      0.999800
      0.999689
      0.999690
      0.999800
      0.999719
      0.999800
      0.999729
      0.999800
      0.999800
      0.999741
      0.999800
      0.999800
      0.999800
      0.999800
      0.999800
      0.999800
      0.999800
      0.999800
      0.999800
      0.999800
      0.999800
      0.999800
      0.999800
      0.999800
      0.999800
      0.999800
      0.999800
      0.999800
      0.999800
      0.999800
      0.999800
      0.999800
      0.999800
      0.999800
      0.999800
      0.999800
      0.999800
      0.999800
      0.999800
      0.999800
      0.999800
      0.999800
      0.999800
      0.999800
      0.999800
      0.999800
      0.999727
      0.999722
      0.999800
      0.999721
      0.999800
      0.999705
      0.999800
      0.999800
      0.999667
      0.999653
      0.999657
      0.999652
      0.999671
      0.999800
      0.999671
      0.999652
      0.999657
      0.999653
      0.999667
      0.999800
      0.999800
      0.999705
      0.999800
      0.999721
      0.999800
      0.999722
      0.999727
      0.999800
      0.999800
      0.999800
      0.999800
      0.999800
      0.999800
      0.999800
      0.999800
      0.999800
      0.999800
      0.999800
      0.999800
      0.999800
      0.999800
      0.999800
      0.999800
      0.999800
      0.999800
      0.999800
      0.999800
      0.999800
      0.999800
      0.999800
      0.999800
      0.999800
      0.999800
      0.999800
      0.999800
      0.999800
      0.999800
      0.999800
      0.999800
      0.999800
      0.999800
      0.999800
      0.999800
      0.999737
      0.999800
      0.999800
      0.999721
      0.999800
      0.999707
      0.999800
      0.999670
      0.999668
      0.999800
      0.999800
      0.999800
      0.999800
      0.999800
      0.999645
      0.999800
      0.999800
      0.999800
      0.999800
      0.999800
      0.999668
      0.999670
      0.999800
      0.999707
      0.999800
      0.999721
      0.999800
      0.999800
      0.999737
      0.999800
      0.999800
      0.999800
      0.999800
      0.999800
      0.999800
      0.999800
      0.999800
      0.999800
      0.999800
      0.999800
      0.999800
      0.999800
      0.999800
      0.999800
      0.999800
      0.999800
      0.999800
      0.999800
      0.999800
      0.999800
      0.999800
      0.999800
      0.999800
      0.999800
      0.999800
      0.999800
      0.999800
      0.999800
      0.999800
      0.999800
      0.999800
      0.999800
      0.999800
      0.999800
      0.999800
      0.999719
      0.999713
      0.999800
      0.999709
      0.999800
      0.999686
      0.999800
      0.999800
      0.999632
      0.999608
      0.999616
      0.999605
      0.999638
      0.999800
      0.999638
      0.999605
      0.999616
      0.999608
      0.999632
      0.999800
      0.999800
      0.999686
      0.999800
      0.999709
      0.999800
      0.999713
      0.999719
      0.999800
      0.999800
      0.999800
      0.999800
      0.999800
      0.999800
      0.999800
      0.999800
      0.999800
      0.999800
      0.999800
      0.999800
      0.999800
      0.999800
      0.999800
      0.999800
      0.999800
      0.999800
      0.999800
      0.999800
      0.999800
      0.999800
      0.999800
      0.999800
      0.999800
      0.999800
      0.999800
      0.999800
      0.999800
      0.999800
      0.999800
      0.999800
      0.999800
      0.999800
      0.999800
      0.999800
      0.999730
      0.999800
      0.999800
      0.999708
      0.999800
      0.999688
      0.999800
      0.999634
      0.999633
      0.999800
      0.999800
      0.999800
      0.999800
      0.999800
      0.999537
      0.999800
      0.999800
      0.999800
      0.999800
      0.999800
      0.999633
      0.999634
      0.999800
      0.999688
      0.999800
      0.999708
      0.999800
      0.999800
      0.999730
      0.999800
      0.999800
      0.999800
      0.999800
      0.999800
      0.999800
      0.999800
      0.999800
      0.999800
      0.999800
      0.999800
      0.999800
      0.999800
      0.999800
      0.999800
      0.999800
      0.999800
      0.999800
      0.999800
      0.999800
      0.999800
      0.999800
      0.999800
      0.999800
      0.999800
      0.999800
      0.999800
      0.999800
      0.999800
      0.999800
      0.999800
      0.999800
      0.999800
      0.999800
      0.999800
      0.999800
      0.999707
      0.999698
      0.999800
      0.999689
      0.999800
      0.999653
      0.999800
      0.999800
      0.999505
      0.999467
      0.999478
      0.999463
      0.999520
      0.999800
      0.999520
      0.999463
      0.999478
      0.999467
      0.999505
      0.999800
      0.999800
      0.999653
      0.999800
      0.999689
      0.999800
      0.999698
      0.999707
      0.999800
      0.999800
      0.999800
      0.999800
      0.999800
      0.999800
      0.999800
      0.999800
      0.999800
      0.999800
      0.999800
      0.999800
      0.999800
      0.999800
      0.999800
      0.999800
      0.999800
      0.999800
      0.999800
      0.999800
      0.999800
      0.999800
      0.999800
      0.999800
      0.999800
      0.999800
      0.999800
      0.999800
      0.999800
      0.999800
      0.999800
      0.999800
      0.999800
      0.999800
      0.999800
      0.999800
      0.999722
      0.999800
      0.999800
      0.999687
      0.999800
      0.999655
      0.999800
      0.999507
      0.999507
      0.999800
      0.999800
      0.999800
      0.999800
      0.999800
      0.999285
      0.999800
      0.999800
      0.999800
      0.999800
      0.999800
      0.999507
      0.999507
      0.999800
      0.999655
      0.999800
      0.999687
      0.999800
      0.999800
      0.999722
      0.999800
      0.999800
      0.999800
      0.999800
      0.999800
      0.999800
      0.999800
      0.999800
      0.999800
      0.999800
      0.999800
      0.999800
      0.999800
      0.999800
      0.999800
      0.999800
      0.999800
      0.999800
      0.999800
      0.999800
      0.999800
      0.999800
      0.999800
      0.999800
      0.999800
      0.999800
      0.999800
      0.999800
      0.999800
      0.999800
      0.999800
      0.999800
      0.999800
      0.999800
      0.999800
      0.999800
      0.999689
      0.999676
      0.999800
      0.999656
      0.999800
      0.999551
      0.999800
      0.999800
      0.999233
      0.999172
      0.999192
      0.999166
      0.999262
      0.999800
      0.999262
      0.999166
      0.999192
      0.999172
      0.999233
      0.999800
      0.999800
      0.999551
      0.999800
      0.999656
      0.999800
      0.999676
      0.999689
      0.999800
      0.999800
      0.999800
      0.999800
      0.999800
      0.999800
      0.999800
      0.999800
      0.999800
      0.999800
      0.999800
      0.999800
      0.999800
      0.999800
      0.999800
      0.999800
      0.999800
      0.999800
      0.999800
      0.999800
      0.999800
      0.999800
      0.999800
      0.999800
      0.999800
      0.999800
      0.999800
      0.999800
      0.999800
      0.999800
      0.999800
      0.999800
      0.999800
      0.999800
      0.999800
      0.999800
      0.999709
      0.999800
      0.999800
      0.999654
      0.999800
      0.999557
      0.999800
      0.999231
      0.999239
      0.999800
      0.999800
      0.999800
      0.999800
      0.999800
      0.998629
      0.999800
      0.999800
      0.999800
      0.999800
      0.999800
      0.999239
      0.999231
      0.999800
      0.999557
      0.999800
      0.999654
      0.999800
      0.999800
      0.999709
      0.999800
      0.999800
      0.999800
      0.999800
      0.999800
      0.999800
      0.999800
      0.999800
      0.999800
      0.999800
      0.999800
      0.999800
      0.999800
      0.999800
      0.999800
      0.999800
      0.999800
      0.999800
      0.999800
      0.999800
      0.999800
      0.999800
      0.999800
      0.999800
      0.999800
      0.999800
      0.999800
      0.999800
      0.999800
      0.999800
      0.999800
      0.999800
      0.999800
      0.999800
      0.999800
      0.999800
      0.999662
      0.999639
      0.999800
      0.999558
      0.999800
      0.999302
      0.999800
      0.999800
      0.998530
      0.998412
      0.998454
      0.998397
      0.998605
      0.999800
      0.998605
      0.998397
      0.998454
      0.998412
      0.998530
      0.999800
      0.999800
      0.999302
      0.999800
      0.999558
      0.999800
      0.999639
      0.999662
      0.999800
      0.999800
      0.999800
      0.999800
      0.999800
      0.999800
      0.999800
      0.999800
      0.999800
      0.999800
      0.999800
      0.999800
      0.999800
      0.999800
      0.999800
      0.999800
      0.999800
      0.999800
      0.999800
      0.999800
      0.999800
      0.999800
      0.999800
      0.999800
      0.999800
      0.999800
      0.999800
      0.999800
      0.999800
      0.999800
      0.999800
      0.999800
      0.999800
      0.999800
      0.999800
      0.999800
      0.999692
      0.999800
      0.999800
      0.999552
      0.999800
      0.999312
      0.999800
      0.998516
      0.998559
      0.999800
      0.999800
      0.999800
      0.999800
      0.999800
      0.995960
      0.999800
      0.999800
      0.999800
      0.999800
      0.999800
      0.998559
      0.998516
      0.999800
      0.999312
      0.999800
      0.999552
      0.999800
      0.999800
      0.999692
      0.999800
      0.999800
      0.999800
      0.999800
      0.999800
      0.999800
      0.999800
      0.999800
      0.999800
      0.999800
      0.999800
      0.999800
      0.999800
      0.999800
      0.999800
      0.999800
      0.999800
      0.999800
      0.999800
      0.999800
      0.999800
      0.999800
      0.999800
      0.999800
      0.999800
      0.999800
      0.999800
      0.999800
      0.999800
      0.999800
      0.999800
      0.999800
      0.999800
      0.999800
      0.999800
      0.999800
      0.999607
      0.999516
      0.999800
      0.999314
      0.999800
      0.998663
      0.999800
      0.999800
      0.995699
      0.995350
      0.995497
      0.995279
      0.996093
      0.999800
      0.996093
      0.995279
      0.995497
      0.995350
      0.995699
      0.999800
      0.999800
      0.998663
      0.999800
      0.999314
      0.999800
      0.999516
      0.999607
      0.999800
      0.999800
      0.999800
      0.999800
      0.999800
      0.999800
      0.999800
      0.999800
      0.999800
      0.999800
      0.999800
      0.999800
      0.999800
      0.999800
      0.999800
      0.999800
      0.999800
      0.999800
      0.999800
      0.999800
      0.999800
      0.999800
      0.999800
      0.999800
      0.999800
      0.999800
      0.999800
      0.999800
      0.999800
      0.999800
      0.999800
      0.999800
      0.999800
      0.999800
      0.999800
      0.999798
      0.999674
      0.999800
      0.999800
      0.999291
      0.999800
      0.998668
      0.999800
      0.995571
      0.995990
      0.999800
      0.999800
      0.999800
      0.999800
      0.999800
      0.948055
      0.999800
      0.999800
      0.999800
      0.999800
      0.999800
      0.995990
      0.995571
      0.999800
      0.998668
      0.999800
      0.999291
      0.999800
      0.999800
      0.999674
      0.999798
      0.999800
      0.999800
      0.999800
      0.999800
      0.999800
      0.999800
      0.999800
      0.999800
      0.999800
      0.999800
      0.999800
      0.999800
      0.999800
      0.999800
      0.999800
      0.999800
      0.999800
      0.999745
      0.999800
      0.999743
      0.999800
      0.999741
      0.999800
      0.999737
      0.999800
      0.999730
      0.999800
      0.999722
      0.999800
      0.999709
      0.999800
      0.999692
      0.999800
      0.999674
      0.999800
      0.999080
      0.999655
      0.999800
      0.999295
      0.999800
      0.997016
      0.999800
      0.999800
      0.943125
      0.945302
      0.936932
      0.955693
      0.884424
      0.846192
      0.884424
      0.955693
      0.936932
      0.945302
      0.943125
      0.999800
      0.999800
      0.997016
      0.999800
      0.999295
      0.999800
      0.999655
      0.999080
      0.999800
      0.999674
      0.999800
      0.999692
      0.999800
      0.999709
      0.999800
      0.999722
      0.999800
      0.999730
      0.999800
      0.999737
      0.999800
      0.999741
      0.999800
      0.999743
      0.999800
      0.999745
      0.999800
      0.999800
      0.999735
      0.999800
      0.999732
      0.999800
      0.999727
      0.999800
      0.999719
      0.999800
      0.999707
      0.999800
      0.999689
      0.999800
      0.999662
      0.999800
      0.999607
      0.999800
      0.999080
      0.999800
      0.999800
      0.999766
      0.999800
      0.999015
      0.999800
      0.955057
      0.892515
      0.892568
      0.952173
      0.938491
      0.944300
      0.943755
      0.999800
      0.943755
      0.944300
      0.938491
      0.952173
      0.892568
      0.892515
      0.955057
      0.999800
      0.999015
      0.999800
      0.999766
      0.999800
      0.999800
      0.999080
      0.999800
      0.999607
      0.999800
      0.999662
      0.999800
      0.999689
      0.999800
      0.999707
      0.999800
      0.999719
      0.999800
      0.999727
      0.999800
      0.999732
      0.999800
      0.999735
      0.999800
      0.999736
      0.999800
      0.999732
      0.999800
      0.999728
      0.999800
      0.999722
      0.999800
      0.999713
      0.999800
      0.999698
      0.999800
      0.999676
      0.999800
      0.999639
      0.999800
      0.999516
      0.999800
      0.999655
      0.999800
      0.997252
      0.999800
      0.992404
      0.999800
      0.895495
      0.892670
      0.954757
      0.999800
      0.999800
      0.999800
      0.999800
      0.999800
      0.997616
      0.999800
      0.999800
      0.999800
      0.999800
      0.999800
      0.954757
      0.892670
      0.895495
      0.999800
      0.992404
      0.999800
      0.997252
      0.999800
      0.999655
      0.999800
      0.999516
      0.999800
      0.999639
      0.999800
      0.999676
      0.999800
      0.999698
      0.999800
      0.999713
      0.999800
      0.999722
      0.999800
      0.999728
      0.999800
      0.999732
      0.999800
      0.999733
      0.999736
      0.999800
      0.999734
      0.999800
      0.999729
      0.999800
      0.999721
      0.999800
      0.999708
      0.999800
      0.999687
      0.999800
      0.999654
      0.999800
      0.999552
      0.999800
      0.999291
      0.999800
      0.999766
      0.999800
      0.992532
      0.999800
      0.896002
      0.895678
      0.999800
      0.999800
      0.998101
      0.993920
      0.996510
      0.994484
      0.996502
      0.999800
      0.996502
      0.994484
      0.996510
      0.993920
      0.998101
      0.999800
      0.999800
      0.895678
      0.896002
      0.999800
      0.992532
      0.999800
      0.999766
      0.999800
      0.999291
      0.999800
      0.999552