# vtk DataFile Version 2.0
time_10.vtk
ASCII
DATASET STRUCTURED_GRID
DIMENSIONS      64     64      1
POINTS    4096 float
      0.000000      0.000000      0.000000
      0.000000      0.500000      0.000000
      0.000000      1.000000      0.000000
      0.000000      1.500000      0.000000
      0.000000      2.000000      0.000000
      0.000000      2.500000      0.000000
      0.000000      3.000000      0.000000
      0.000000      3.500000      0.000000
      0.000000      4.000000      0.000000
      0.000000      4.500000      0.000000
      0.000000      5.000000      0.000000
      0.000000      5.500000      0.000000
      0.000000      6.000000      0.000000
      0.000000      6.500000      0.000000
      0.000000      7.000000      0.000000
      0.000000      7.500000      0.000000
      0.000000      8.000000      0.000000
      0.000000      8.500000      0.000000
      0.000000      9.000000      0.000000
      0.000000      9.500000      0.000000
      0.000000     10.000000      0.000000
      0.000000     10.500000      0.000000
      0.000000     11.000000      0.000000
      0.000000     11.500000      0.000000
      0.000000     12.000000      0.000000
      0.000000     12.500000      0.000000
      0.000000     13.000000      0.000000
      0.000000     13.500000      0.000000
      0.000000     14.000000      0.000000
      0.000000     14.500000      0.000000
      0.000000     15.000000      0.000000
      0.000000     15.500000      0.000000
      0.000000     16.000000      0.000000
      0.000000     16.500000      0.000000
      0.000000     17.000000      0.000000
      0.000000     17.500000      0.000000
      0.000000     18.000000      0.000000
      0.000000     18.500000      0.000000
      0.000000     19.000000      0.000000
      0.000000     19.500000      0.000000
      0.000000     20.000000      0.000000
      0.000000     20.500000      0.000000
      0.000000     21.000000      0.000000
      0.000000     21.500000      0.000000
      0.000000     22.000000      0.000000
      0.000000     22.500000      0.000000
      0.000000     23.000000      0.000000
      0.000000     23.500000      0.000000
      0.000000     24.000000      0.000000
      0.000000     24.500000      0.000000
      0.000000     25.000000      0.000000
      0.000000     25.500000      0.000000
      0.000000     26.000000      0.000000
      0.000000     26.500000      0.000000
      0.000000     27.000000      0.000000
      0.000000     27.500000      0.000000
      0.000000     28.000000      0.000000
      0.000000     28.500000      0.000000
      0.000000     29.000000      0.000000
      0.000000     29.500000      0.000000
      0.000000     30.000000      0.000000
      0.000000     30.500000      0.000000
      0.000000     31.000000      0.000000
      0.000000     31.500000      0.000000
      0.500000      0.000000      0.000000
      0.500000      0.500000      0.000000
      0.500000      1.000000      0.000000
      0.500000      1.500000      0.000000
      0.500000      2.000000      0.000000
      0.500000      2.500000      0.000000
      0.500000      3.000000      0.000000
      0.500000      3.500000      0.000000
      0.500000      4.000000      0.000000
      0.500000      4.500000      0.000000
      0.500000      5.000000      0.000000
      0.500000      5.500000      0.000000
      0.500000      6.000000      0.000000
      0.500000      6.500000      0.000000
      0.500000      7.000000      0.000000
      0.500000      7.500000      0.000000
      0.500000      8.000000      0.000000
      0.500000      8.500000      0.000000
      0.500000      9.000000      0.000000
      0.500000      9.500000      0.000000
      0.500000     10.000000      0.000000
      0.500000     10.500000      0.000000
      0.500000     11.000000      0.000000
      0.500000     11.500000      0.000000
      0.500000     12.000000      0.000000
      0.500000     12.500000      0.000000
      0.500000     13.000000      0.000000
      0.500000     13.500000      0.000000
      0.500000     14.000000      0.000000
      0.500000     14.500000      0.000000
      0.500000     15.000000      0.000000
      0.500000     15.500000      0.000000
      0.500000     16.000000      0.000000
      0.500000     16.500000      0.000000
      0.500000     17.000000      0.000000
      0.500000     17.500000      0.000000
      0.500000     18.000000      0.000000
      0.500000     18.500000      0.000000
      0.500000     19.000000      0.000000
      0.500000     19.500000      0.000000
      0.500000     20.000000      0.000000
      0.500000     20.500000      0.000000
      0.500000     21.000000      0.000000
      0.500000     21.500000      0.000000
      0.500000     22.000000      0.000000
      0.500000     22.500000      0.000000
      0.500000     23.000000      0.000000
      0.500000     23.500000      0.000000
      0.500000     24.000000      0.000000
      0.500000     24.500000      0.000000
      0.500000     25.000000      0.000000
      0.500000     25.500000      0.000000
      0.500000     26.000000      0.000000
      0.500000     26.500000      0.000000
      0.500000     27.000000      0.000000
      0.500000     27.500000      0.000000
      0.500000     28.000000      0.000000
      0.500000     28.500000      0.000000
      0.500000     29.000000      0.000000
      0.500000     29.500000      0.000000
      0.500000     30.000000      0.000000
      0.500000     30.500000      0.000000
      0.500000     31.000000      0.000000
      0.500000     31.500000      0.000000
      1.000000      0.000000      0.000000
      1.000000      0.500000      0.000000
      1.000000      1.000000      0.000000
      1.000000      1.500000      0.000000
      1.000000      2.000000      0.000000
      1.000000      2.500000      0.000000
      1.000000      3.000000      0.000000
      1.000000      3.500000      0.000000
      1.000000      4.000000      0.000000
      1.000000      4.500000      0.000000
      1.000000      5.000000      0.000000
      1.000000      5.500000      0.000000
      1.000000      6.000000      0.000000
      1.000000      6.500000      0.000000
      1.000000      7.000000      0.000000
      1.000000      7.500000      0.000000
      1.000000      8.000000      0.000000
      1.000000      8.500000      0.000000
      1.000000      9.000000      0.000000
      1.000000      9.500000      0.000000
      1.000000     10.000000      0.000000
      1.000000     10.500000      0.000000
      1.000000     11.000000      0.000000
      1.000000     11.500000      0.000000
      1.000000     12.000000      0.000000
      1.000000     12.500000      0.000000
      1.000000     13.000000      0.000000
      1.000000     13.500000      0.000000
      1.000000     14.000000      0.000000
      1.000000     14.500000      0.000000
      1.000000     15.000000      0.000000
      1.000000     15.500000      0.000000
      1.000000     16.000000      0.000000
      1.000000     16.500000      0.000000
      1.000000     17.000000      0.000000
      1.000000     17.500000      0.000000
      1.000000     18.000000      0.000000
      1.000000     18.500000      0.000000
      1.000000     19.000000      0.000000
      1.000000     19.500000      0.000000
      1.000000     20.000000      0.000000
      1.000000     20.500000      0.000000
      1.000000     21.000000      0.000000
      1.000000     21.500000      0.000000
      1.000000     22.000000      0.000000
      1.000000     22.500000      0.000000
      1.000000     23.000000      0.000000
      1.000000     23.500000      0.000000
      1.000000     24.000000      0.000000
      1.000000     24.500000      0.000000
      1.000000     25.000000      0.000000
      1.000000     25.500000      0.000000
      1.000000     26.000000      0.000000
      1.000000     26.500000      0.000000
      1.000000     27.000000      0.000000
      1.000000     27.500000      0.000000
      1.000000     28.000000      0.000000
      1.000000     28.500000      0.000000
      1.000000     29.000000      0.000000
      1.000000     29.500000      0.000000
      1.000000     30.000000      0.000000
      1.000000     30.500000      0.000000
      1.000000     31.000000      0.000000
      1.000000     31.500000      0.000000
      1.500000      0.000000      0.000000
      1.500000      0.500000      0.000000
      1.500000      1.000000      0.000000
      1.500000      1.500000      0.000000
      1.500000      2.000000      0.000000
      1.500000      2.500000      0.000000
      1.500000      3.000000      0.000000
      1.500000      3.500000      0.000000
      1.500000      4.000000      0.000000
      1.500000      4.500000      0.000000
      1.500000      5.000000      0.000000
      1.500000      5.500000      0.000000
      1.500000      6.000000      0.000000
      1.500000      6.500000      0.000000
      1.500000      7.000000      0.000000
      1.500000      7.500000      0.000000
      1.500000      8.000000      0.000000
      1.500000      8.500000      0.000000
      1.500000      9.000000      0.000000
      1.500000      9.500000      0.000000
      1.500000     10.000000      0.000000
      1.500000     10.500000      0.000000
      1.500000     11.000000      0.000000
      1.500000     11.500000      0.000000
      1.500000     12.000000      0.000000
      1.500000     12.500000      0.000000
      1.500000     13.000000      0.000000
      1.500000     13.500000      0.000000
      1.500000     14.000000      0.000000
      1.500000     14.500000      0.000000
      1.500000     15.000000      0.000000
      1.500000     15.500000      0.000000
      1.500000     16.000000      0.000000
      1.500000     16.500000      0.000000
      1.500000     17.000000      0.000000
      1.500000     17.500000      0.000000
      1.500000     18.000000      0.000000
[...]
POINT_DATA  4096
SCALARS CON float 1
LOOKUP_TABLE default
      0.999800
      0.999800
      0.999800
      0.999800
      0.999800
      0.999800
      0.999800
      0.999800
      0.999800
      0.999800
      0.999800
      0.999800
      0.999800
      0.999800
      0.999800
      0.999800
      0.999800
      0.999800
      0.999800
      0.999800
      0.999800
      0.999800
      0.999800
      0.999800
      0.999800
      0.999800
      0.999800
      0.999800
      0.999800
      0.999800
      0.999800
      0.999800
      0.999800
      0.999800
      0.999800
      0.999800
      0.999800
      0.999800
      0.999800
      0.999800
      0.999800
      0.999800
      0.999800
      0.999800
      0.999800
      0.999800
      0.999800
      0.999800
      0.999800
      0.999800
      0.999800
      0.999800
      0.999800
      0.999800
      0.999800
      0.999800
      0.999800
      0.999800
      0.999800
      0.999800
      0.999800
      0.999800
      0.999800
      0.999800
      0.999800
      0.999800
      0.999800
      0.999800
      0.999800
      0.999800
      0.999800
      0.999800
      0.999800
      0.999800
      0.999800
      0.999800
      0.999800
      0.999800
      0.999800
      0.999800
      0.999800
      0.999800
      0.999800
      0.999800
      0.999800
      0.999800
      0.999800
      0.999800
      0.999800
      0.999800
      0.999800
      0.999800
      0.999800
      0.999799
      0.999799
      0.999800
      0.999799
      0.999799
      0.999800
      0.999800
      0.999800
      0.999800
      0.999800
      0.999800
      0.999800
      0.999800
      0.999800
      0.999800
      0.999800
      0.999800
      0.999800
      0.999800
      0.999800
      0.999800
      0.999800
      0.999800
      0.999800
      0.999800
      0.999800
      0.999800
      0.999800
      0.999800
      0.999800
      0.999800
      0.999800
      0.999800
      0.999800
      0.999800
      0.999800
      0.999800
      0.999800
      0.999800
      0.999800
      0.999800
      0.999800
      0.999800
      0.999800
      0.999800
      0.999800
      0.999800
      0.999800
      0.999800
      0.999800
      0.999800
      0.999800
      0.999800
      0.999800
      0.999800
      0.999800
      0.999800
      0.999800
      0.999800
      0.999800
      0.999800
      0.999800
      0.999800
      0.999800
      0.999800
      0.999800
      0.999800
      0.999800
      0.999800
      0.999800
      0.999800
      0.999800
      0.999800
      0.999800
      0.999800
      0.999800
      0.999800
      0.999800
      0.999800
      0.999800
      0.999800
      0.999800
      0.999800
      0.999800
      0.999800
      0.999800
      0.999800
      0.999800
      0.999800
      0.999800
      0.999800
      0.999800
      0.999800
      0.999800
      0.999800
      0.999800
      0.999800
      0.999800
      0.999800
      0.999800
      0.999800
      0.999800
      0.999800
      0.999800
      0.999800
      0.999800
      0.999800
      0.999800
      0.999800
      0.999800
      0.999800
      0.999800
      0.999800
      0.999800
      0.999800
      0.999800
      0.999800
      0.999800
      0.999800
      0.999800
      0.999800
      0.999800
      0.999800
      0.999800
      0.999800
      0.999800
      0.999800
      0.999800
      0.999791
      0.999790
      0.999791
      0.999790
      0.999791
      0.999800
      0.999800
      0.999800
      0.999800
      0.999800
      0.999800
      0.999800
      0.999800
      0.999800
      0.999800
      0.999800
      0.999800
      0.999800
      0.999800
      0.999800
      0.999800
      0.999800
      0.999800
      0.999800
      0.999800
      0.999800
      0.999800
      0.999800
      0.999800
      0.999800
      0.999800
      0.999800
      0.999800
      0.999800
      0.999800
      0.999800
      0.999800
      0.999800
      0.999800
      0.999800
      0.999800
      0.999800
      0.999800
      0.999800
      0.999800
      0.999800
      0.999800
      0.999800
      0.999800
      0.999800
      0.999800
      0.999800
      0.999800
      0.999800
      0.999800
      0.999800
      0.999800
      0.999800
      0.999800
      0.999800
      0.999800
      0.999800
      0.999800
      0.999800
      0.999800
      0.999800
      0.999800
      0.999800
      0.999800
      0.999800
      0.999800
      0.999800
      0.999800
      0.999800
      0.999800
      0.999800
      0.999800
      0.999800
      0.999800
      0.999800
      0.999800
      0.999800
      0.999800
      0.999800
      0.999800
      0.999800
      0.999800
      0.999800
      0.999800
      0.999800
      0.999800
      0.999800
      0.999800
      0.999800
      0.999800
      0.999800
      0.999800
      0.999800
      0.999800
      0.999800
      0.999800
      0.999800
      0.999800
      0.999800
      0.999800
      0.999800
      0.999800
      0.999800
      0.999800
      0.999800
      0.999800
      0.999800
      0.999800
      0.999800
      0.999800
      0.999800
      0.999800
      0.999800
      0.999800
      0.999800
      0.999800
      0.999800
      0.999800
      0.999800
      0.999800
      0.999800
      0.999800
      0.999786
      0.999773
      0.999772
      0.999774
      0.999772
      0.999773
      0.999786
      0.999800
      0.999800
      0.999800
      0.999800
      0.999800
      0.999800
      0.999800
      0.999800
      0.999800
      0.999800
      0.999800
      0.999800
      0.999800
      0.999800
      0.999800
      0.999800
      0.999800
      0.999800
      0.999800
      0.999800
      0.999800
      0.999800
      0.999800
      0.999800
      0.999800
      0.999800
      0.999800
      0.999800
      0.999800
      0.999800
      0.999800
      0.999800
      0.999800
      0.999800
      0.999800
      0.999800
      0.999800
      0.999800
      0.999800
      0.999800
      0.999800
      0.999800
      0.999800
      0.999800
      0.999800
      0.999800
      0.999800
      0.999800
      0.999800
      0.999800
      0.999800
      0.999800
      0.999800
      0.999800
      0.999800
      0.999800
      0.999800
      0.999800
      0.999800
      0.999800
      0.999800
      0.999800
      0.999800
      0.999800
      0.999800
      0.999800
      0.999800
      0.999800
      0.999800
      0.999800
      0.999800
      0.999800
      0.999800
      0.999800
      0.999800
      0.999800
      0.999800
      0.999800
      0.999800
      0.999800
      0.999800
      0.999800
      0.999800
      0.999800
      0.999800
      0.999800
      0.999800
      0.999800
      0.999800
      0.999800
      0.999800
      0.999800
      0.999800
      0.999800
      0.999800
      0.999800
      0.999800
      0.999800
      0.999800
      0.999800
      0.999800
      0.999800
      0.999800
      0.999800
      0.999800
      0.999800
      0.999800
      0.999800
      0.999800
      0.999800
      0.999800
      0.999800
      0.999800
      0.999800
      0.999800
      0.999800
      0.999800
      0.999800
      0.999800
      0.999800
      0.999800
      0.999759
      0.999741
      0.999741
      0.999743
      0.999741
      0.999741
      0.999759
      0.999800
      0.999800
      0.999800
      0.999800
      0.999800
      0.999800
      0.999800
      0.999800
      0.999800
      0.999800
      0.999800
      0.999800
      0.999800
      0.999800
      0.999800
      0.999800
      0.999800
      0.999800
      0.999800
      0.999800
      0.999800
      0.999800
      0.999800
      0.999800
      0.999800
      0.999800
      0.999800
      0.999800
      0.999800
      0.999800
      0.999800
      0.999800
      0.999800
      0.999800
      0.999800
      0.999800
      0.999800
      0.999800
      0.999800
      0.999800
      0.999800
      0.999800
      0.999800
      0.999800
      0.999800
      0.999800
      0.999800
      0.999800
      0.999800
      0.999800
      0.999800
      0.999800
      0.999800
      0.999800
      0.999800
      0.999800
      0.999800
      0.999800
      0.999800
      0.999800
      0.999800
      0.999800
      0.999800
      0.999800
      0.999800
      0.999800
      0.999800
      0.999800
      0.999800
      0.999800
      0.999800
      0.999800
      0.999800
      0.999800
      0.999800
      0.999800
      0.999800
      0.999800
      0.999800
      0.999800
      0.999800
      0.999800
      0.999800
      0.999800
      0.999800
      0.999800
      0.999800
      0.999800
      0.999800
      0.999800
      0.999800
      0.999800
      0.999800
      0.999800
      0.999800
      0.999800
      0.999800
      0.999800
      0.999800
      0.999800
      0.999800
      0.999800
      0.999800
      0.999800
      0.999800
      0.999800
      0.999800
      0.999800
      0.999800
      0.999800
      0.999800
      0.999800
      0.999800
      0.999800
      0.999800
      0.999800
      0.999800
      0.999800
      0.999800
      0.999800
      0.999776
      0.999706
      0.999682
      0.999685
      0.999688
      0.999685
      0.999682
      0.999706
      0.999776
      0.999800
      0.999800
      0.999800
      0.999800
      0.999800
      0.999800
      0.999800
      0.999800
      0.999800
      0.999800
      0.999800
      0.999800
      0.999800
      0.999800
      0.999800
      0.999800
      0.999800
      0.999800
      0.999800
      0.999800
      0.999800
      0.999800
      0.999800
      0.999800
      0.999800
      0.999800
      0.999800
      0.999800
      0.999800
      0.999800
      0.999800
      0.999800
      0.999800
      0.999800
      0.999800
      0.999800
      0.999800
      0.999800
      0.999800
      0.999800
      0.999800
      0.999800
      0.999800
      0.999800
      0.999800
      0.999800
      0.999800
      0.999800
      0.999800
      0.999800
      0.999800
      0.999800
      0.999800
      0.999782
      0.999800
      0.999800
      0.999800
      0.999800
      0.999800
      0.999800
      0.999800
      0.999800
      0.999800
      0.999800
      0.999800
      0.999782
      0.999800
      0.999800
      0.999800
      0.999800
      0.999800
      0.999800
      0.999800
      0.999800
      0.999800
      0.999800
      0.999800
      0.999800
      0.999800
      0.999800
      0.999800
      0.999800
      0.999800
      0.999800
      0.999800
      0.999800
      0.999800
      0.999800
      0.999800
      0.999800
      0.999800
      0.999800
      0.999800
      0.999800
      0.999800
      0.999800
      0.999800
      0.999800
      0.999800
      0.999800
      0.999800
      0.999800
      0.999800
      0.999800
      0.999800
      0.999800
      0.999800
      0.999800
      0.999800
      0.999800
      0.999800
      0.999800
      0.999800
      0.999800
      0.999800
      0.999800
      0.999800
      0.999800
      0.999800
      0.999702
      0.999595
      0.999569
      0.999577
      0.999584
      0.999577
      0.999569
      0.999595
      0.999702
      0.999800
      0.999800
      0.999800
      0.999800
      0.999800
      0.999800
      0.999800
      0.999800
      0.999800
      0.999800
      0.999800
      0.999800
      0.999800
      0.999800
      0.999800
      0.999800
      0.999800
      0.999800
      0.999800
      0.999800
      0.999800
      0.999800
      0.999800
      0.999800
      0.999800
      0.999800
      0.999800
      0.999800
      0.999800
      0.999800
      0.999800
      0.999800
      0.999800
      0.999800
      0.999800
      0.999800
      0.999800
      0.999800
      0.999800
      0.999800
      0.999800
      0.999800
      0.999800
      0.999800
      0.999800
      0.999800
      0.999800
      0.999800
      0.999800
      0.999800
      0.999800
      0.999800
      0.999800
      0.999733
      0.999800
      0.999800
      0.999800
      0.999800
      0.999800
      0.999800
      0.999800
      0.999800
      0.999800
      0.999800
      0.999800
      0.999733
      0.999800
      0.999800
      0.999800
      0.999800
      0.999800
      0.999800
      0.999800
      0.999800
      0.999800
      0.999800
      0.999800
      0.999800
      0.999800
      0.999800
      0.999800
      0.999800
      0.999800
      0.999800
      0.999800
      0.999800
      0.999800
      0.999800
      0.999800
      0.999800
      0.999800
      0.999800
      0.999800
      0.999800
      0.999800
      0.999800
      0.999800
      0.999800
      0.999800
      0.999800
      0.999800
      0.999800
      0.999800
      0.999800
      0.999800
      0.999800
      0.999800
      0.999800
      0.999800
      0.999800
      0.999800
      0.999800
      0.999800
      0.999800
      0.999800
      0.999800
      0.999800
      0.999800
      0.999800
      0.999553
      0.999383
      0.999346
      0.999354
      0.999363
      0.999354
      0.999346
      0.999383
      0.999553
      0.999800
      0.999800
      0.999800
      0.999800
      0.999800
      0.999800
      0.999800
      0.999800
      0.999800
      0.999800
      0.999800
      0.999800
      0.999800
      0.999800
      0.999800
      0.999800
      0.999800
      0.999800
      0.999800
      0.999800
      0.999800
      0.999800
      0.999800
      0.999800
      0.999800
      0.999800
      0.999800
      0.999800
      0.999800
      0.999800
      0.999800
      0.999800
      0.999800
      0.999800
      0.999800
      0.999800
      0.999800
      0.999800
      0.999800
      0.999800
      0.999800
      0.999800
      0.999800
      0.999800
      0.999800
      0.999800
      0.999800
      0.999800
      0.999800
      0.999800
      0.999800
      0.999800
      0.999764
      0.999513
      0.999650
      0.999805
      0.999767
      0.999559
      0.999360
      0.999284
      0.999360
      0.999559
      0.999767
      0.999805
      0.999650
      0.999513
      0.999764
      0.999800
      0.999800
      0.999800
      0.999800
      0.999800
      0.999800
      0.999800
      0.999800
      0.999800
      0.999800
      0.999800
      0.999800
      0.999800
      0.999800
      0.999800
      0.999800
      0.999800
      0.999800
      0.999800
      0.999800
      0.999800
      0.999800
      0.999800
      0.999800
      0.999800
      0.999800
      0.999800
      0.999800
      0.999800
      0.999800
      0.999800
      0.999800
      0.999800
      0.999800
      0.999800
      0.999800
      0.999800
      0.999800
      0.999800
      0.999800
      0.999800
      0.999800
      0.999800
      0.999800
      0.999800
      0.999800
      0.999800
      0.999801
      0.999544
      0.999308
      0.998552
      0.996533
      0.993976
      0.991712
      0.989977
      0.988855
      0.988461
      0.988855
      0.989977
      0.991712
      0.993976
      0.996533
      0.998552
      0.999308
      0.999544
      0.999801
      0.999800
      0.999800
      0.999800
      0.999800
      0.999800
      0.999800
      0.999800
      0.999800
      0.999800
      0.999800
      0.999800
      0.999800
      0.999800
      0.999800
      0.999800
      0.999800
      0.999800
      0.999800
      0.999800
      0.999800
      0.999800
      0.999800
      0.999800
      0.999800
      0.999800
      0.999800
      0.999800
      0.999800
      0.999800
      0.999800
      0.999800
      0.999800
      0.999800
      0.999800
      0.999800
      0.999800
      0.999800
      0.999800
      0.999800
      0.999800
      0.999800
      0.999800
      0.999800
      0.999800
      0.999778
      0.999220
      0.997952
      0.994007
      0.986577
      0.975691
      0.961432
      0.946220
      0.933266
      0.924673
      0.921654
      0.924673
      0.933266
      0.946220
      0.961432
      0.975691
      0.986577
      0.994007
      0.997952
      0.999220
      0.999778
      0.999800
      0.999800
      0.999800
      0.999800
      0.999800
      0.999800
      0.999800
      0.999800
      0.999800
      0.999800
      0.999800
      0.999800
      0.999800
      0.999800
      0.999800
      0.999800
      0.999800
      0.999800
      0.999800
      0.999800
      0.999800
      0.999800
      0.999800
      0.999800
      0.999800
      0.999800
      0.999800
      0.999800
      0.999800
      0.999800
      0.999800
      0.999800
      0.999800
      0.999800
      0.999800
      0.999800
      0.999800
      0.999800
      0.999800
      0.999800
      0.999800
      0.999800
      0.999674
      0.998743
      0.995662
      0.985974
      0.963395
      0.918246
      0.852344
      0.786849
      0.738959
      0.709877
      0.694709
      0.690004
      0.694709
      0.709877
      0.738959
      0.786849
      0.852344
      0.918246
      0.963395
      0.985974
      0.995662
      0.998743
      0.999674
      0.999800
      0.999800
      0.999800
      0.999800
      0.999800
      0.999800
      0.999800
      0.999800
      0.999800
      0.999800
      0.999800
      0.999800
      0.999800
      0.999800
      0.999800
      0.999800
      0.999800
      0.999800
      0.999800
      0.999800
      0.999800
      0.999800
      0.999800
      0.999800
      0.999800
      0.999800
      0.999800
      0.999800
      0.999800
      0.999800
      0.999800
      0.999800
      0.999800
      0.999800
      0.999800
      0.999800
      0.999800
      0.999800
      0.999800
      0.999800
      0.999588
      0.998347
      0.993343
      0.975680
      0.925936
      0.824474
      0.705053
      0.639690
      0.648081
      0.683907
      0.713300
      0.730297
      0.735814
      0.730297
      0.713300
      0.683907
      0.648081
      0.639690
      0.705053
      0.824474
      0.925936
      0.975680
      0.993343
      0.998347
      0.999588
      0.999800
      0.999800
      0.999800
      0.999800
      0.999800
      0.999800
      0.999800
      0.999800
      0.999800
      0.999800
      0.999800
      0.999800
      0.999800
      0.999800
      0.999800
      0.999800
      0.999800
      0.999800
      0.999800
      0.999800
      0.999800
      0.999800
      0.999800
      0.999800
      0.999800
      0.999800
      0.999800
      0.999800
      0.999800
      0.999800
      0.999800
      0.999800
      0.999800
      0.999800
      0.999800
      0.999800
      0.999800
      0.999800
      0.999588
      0.998215
      0.991974
      0.967419
      0.891347
      0.742931
      0.637155
      0.691047
      0.798221
      0.873861
      0.915039
      0.934955
      0.943909
      0.946474
      0.943909
      0.934955
      0.915039
      0.873861
      0.798221
      0.691047
      0.637155
      0.742931
      0.891347
      0.967419
      0.991974
      0.998215
      0.999588
      0.999800
      0.999800
      0.999800
      0.999800
      0.999800
      0.999800
      0.999800
      0.999800
      0.999800
      0.999800
      0.999800
      0.999800
      0.999800
      0.999800
      0.999800
      0.999800
      0.999800
      0.999800
      0.999800
      0.999800
      0.999800
      0.999800
      0.999800
      0.999800
      0.999800
      0.999800
      0.999800
      0.999800
      0.999800
      0.999800
      0.999800
      0.999800
      0.999800
      0.999800
      0.999800
      0.999800
      0.999674
      0.998347
      0.991974
      0.964400
      0.872730
      0.700781
      0.645907
      0.782186
      0.903712
      0.959227
      0.979531
      0.987088
      0.990119
      0.991457
      0.991787
      0.991457
      0.990119
      0.987088
      0.979531
      0.959227
      0.903712
      0.782186
      0.645907
      0.700781
      0.872730
      0.964400
      0.991974
      0.998347
      0.999674
      0.999800
      0.999800
      0.999800