# vtk DataFile Version 2.0
time_10.vtk
ASCII
DATASET STRUCTURED_GRID
DIMENSIONS      64     64      1
POINTS    4096 float
      0.000000      0.000000      0.000000
      0.000000      0.500000      0.000000
      0.000000      1.000000      0.000000
      0.000000      1.500000      0.000000
      0.000000      2.000000      0.000000
      0.000000      2.500000      0.000000
      0.000000      3.000000      0.000000
      0.000000      3.500000      0.000000
      0.000000      4.000000      0.000000
      0.000000      4.500000      0.000000
      0.000000      5.000000      0.000000
      0.000000      5.500000      0.000000
      0.000000      6.000000      0.000000
      0.000000      6.500000      0.000000
      0.000000      7.000000      0.000000
      0.000000      7.500000      0.000000
      0.000000      8.000000      0.000000
      0.000000      8.500000      0.000000
      0.000000      9.000000      0.000000
      0.000000      9.500000      0.000000
      0.000000     10.000000      0.000000
      0.000000     10.500000      0.000000
      0.000000     11.000000      0.000000
      0.000000     11.500000      0.000000
      0.000000     12.000000      0.000000
      0.000000     12.500000      0.000000
      0.000000     13.000000      0.000000
      0.000000     13.500000      0.000000
      0.000000     14.000000      0.000000
      0.000000     14.500000      0.000000
      0.000000     15.000000      0.000000
      0.000000     15.500000      0.000000
      0.000000     16.000000      0.000000
      0.000000     16.500000      0.000000
      0.000000     17.000000      0.000000
      0.000000     17.500000      0.000000
      0.000000     18.000000      0.000000
      0.000000     18.500000      0.000000
      0.000000     19.000000      0.000000
      0.000000     19.500000      0.000000
      0.000000     20.000000      0.000000
      0.000000     20.500000      0.000000
      0.000000     21.000000      0.000000
      0.000000     21.500000      0.000000
      0.000000     22.000000      0.000000
      0.000000     22.500000      0.000000
      0.000000     23.000000      0.000000
      0.000000     23.500000      0.000000
      0.000000     24.000000      0.000000
      0.000000     24.500000      0.000000
      0.000000     25.000000      0.000000
      0.000000     25.500000      0.000000
      0.000000     26.000000      0.000000
      0.000000     26.500000      0.000000
      0.000000     27.000000      0.000000
      0.000000     27.500000      0.000000
      0.000000     28.000000      0.000000
      0.000000     28.500000      0.000000
      0.000000     29.000000      0.000000
      0.000000     29.500000      0.000000
      0.000000     30.000000      0.000000
      0.000000     30.500000      0.000000
      0.000000     31.000000      0.000000
      0.000000     31.500000      0.000000
      0.500000      0.000000      0.000000
      0.500000      0.500000      0.000000
      0.500000      1.000000      0.000000
      0.500000      1.500000      0.000000
      0.500000      2.000000      0.000000
      0.500000      2.500000      0.000000
      0.500000      3.000000      0.000000
      0.500000      3.500000      0.000000
      0.500000      4.000000      0.000000
      0.500000      4.500000      0.000000
      0.500000      5.000000      0.000000
      0.500000      5.500000      0.000000
      0.500000      6.000000      0.000000
      0.500000      6.500000      0.000000
      0.500000      7.000000      0.000000
      0.500000      7.500000      0.000000
      0.500000      8.000000      0.000000
      0.500000      8.500000      0.000000
      0.500000      9.000000      0.000000
      0.500000      9.500000      0.000000
      0.500000     10.000000      0.000000
      0.500000     10.500000      0.000000
      0.500000     11.000000      0.000000
      0.500000     11.500000      0.000000
      0.500000     12.000000      0.000000
      0.500000     12.500000      0.000000
      0.500000     13.000000      0.000000
      0.500000     13.500000      0.000000
      0.500000     14.000000      0.000000
      0.500000     14.500000      0.000000
      0.500000     15.000000      0.000000
      0.500000     15.500000      0.000000
      0.500000     16.000000      0.000000
      0.500000     16.500000      0.000000
      0.500000     17.000000      0.000000
      0.500000     17.500000      0.000000
      0.500000     18.000000      0.000000
      0.500000     18.500000      0.000000
      0.500000     19.000000      0.000000
      0.500000     19.500000      0.000000
      0.500000     20.000000      0.000000
      0.500000     20.500000      0.000000
      0.500000     21.000000      0.000000
      0.500000     21.500000      0.000000
      0.500000     22.000000      0.000000
      0.500000     22.500000      0.000000
      0.500000     23.000000      0.000000
      0.500000     23.500000      0.000000
      0.500000     24.000000      0.000000
      0.500000     24.500000      0.000000
      0.500000     25.000000      0.000000
      0.500000     25.500000      0.000000
      0.500000     26.000000      0.000000
      0.500000     26.500000      0.000000
      0.500000     27.000000      0.000000
      0.500000     27.500000      0.000000
      0.500000     28.000000      0.000000
      0.500000     28.500000      0.000000
      0.500000     29.000000      0.000000
      0.500000     29.500000      0.000000
      0.500000     30.000000      0.000000
      0.500000     30.500000      0.000000
      0.500000     31.000000      0.000000
      0.500000     31.500000      0.000000
      1.000000      0.000000      0.000000
      1.000000      0.500000      0.000000
      1.000000      1.000000      0.000000
      1.000000      1.500000      0.000000
      1.000000      2.000000      0.000000
      1.000000      2.500000      0.000000
      1.000000      3.000000      0.000000
      1.000000      3.500000      0.000000
      1.000000      4.000000      0.000000
      1.000000      4.500000      0.000000
      1.000000      5.000000      0.000000
      1.000000      5.500000      0.000000
      1.000000      6.000000      0.000000
      1.000000      6.500000      0.000000
      1.000000      7.000000      0.000000
      1.000000      7.500000      0.000000
      1.000000      8.000000      0.000000
      1.000000      8.500000      0.000000
      1.000000      9.000000      0.000000
      1.000000      9.500000      0.000000
      1.000000     10.000000      0.000000
      1.000000     10.500000      0.000000
      1.000000     11.000000      0.000000
      1.000000     11.500000      0.000000
      1.000000     12.000000      0.000000
      1.000000     12.500000      0.000000
      1.000000     13.000000      0.000000
      1.000000     13.500000      0.000000
      1.000000     14.000000      0.000000
      1.000000     14.500000      0.000000
      1.000000     15.000000      0.000000
      1.000000     15.500000      0.000000
      1.000000     16.000000      0.000000
      1.000000     16.500000      0.000000
      1.000000     17.000000      0.000000
      1.000000     17.500000      0.000000
      1.000000     18.000000      0.000000
      1.000000     18.500000      0.000000
      1.000000     19.000000      0.000000
      1.000000     19.500000      0.000000
      1.000000     20.000000      0.000000
      1.000000     20.500000      0.000000
      1.000000     21.000000      0.000000
      1.000000     21.500000      0.000000
      1.000000     22.000000      0.000000
      1.000000     22.500000      0.000000
      1.000000     23.000000      0.000000
      1.000000     23.500000      0.000000
      1.000000     24.000000      0.000000
      1.000000     24.500000      0.000000
      1.000000     25.000000      0.000000
      1.000000     25.500000      0.000000
      1.000000     26.000000      0.000000
      1.000000     26.500000      0.000000
      1.000000     27.000000      0.000000
      1.000000     27.500000      0.000000
      1.000000     28.000000      0.000000
      1.000000     28.500000      0.000000
      1.000000     29.000000      0.000000
      1.000000     29.500000      0.000000
      1.000000     30.000000      0.000000
      1.000000     30.500000      0.000000
      1.000000     31.000000      0.000000
      1.000000     31.500000      0.000000
      1.500000      0.000000      0.000000
      1.500000      0.500000      0.000000
      1.500000      1.000000      0.000000
      1.500000      1.500000      0.000000
      1.500000      2.000000      0.000000
      1.500000      2.500000      0.000000
      1.500000      3.000000      0.000000
      1.500000      3.500000      0.000000
      1.500000      4.000000      0.000000
      1.500000      4.500000      0.000000
      1.500000      5.000000      0.000000
      1.500000      5.500000      0.000000
      1.500000      6.000000      0.000000
      1.500000      6.500000      0.000000
      1.500000      7.000000      0.000000
      1.500000      7.500000      0.000000
      1.500000      8.000000      0.000000
      1.500000      8.500000      0.000000
      1.500000      9.000000      0.000000
      1.500000      9.500000      0.000000
      1.500000     10.000000      0.000000
      1.500000     10.500000      0.000000
      1.500000     11.000000      0.000000
      1.500000     11.500000      0.000000
      1.500000     12.000000      0.000000
      1.500000     12.500000      0.000000
      1.500000     13.000000      0.000000
      1.500000     13.500000      0.000000
      1.500000     14.000000      0.000000
      1.500000     14.500000      0.000000
      1.500000     15.000000      0.000000
      1.500000     15.500000      0.000000
      1.500000     16.000000      0.000000
      1.500000     16.500000      0.000000
      1.500000     17.000000      0.000000
      1.500000     17.500000      0.000000
      1.500000     18.000000      0.000000
[...]
POINT_DATA  4096
SCALARS CON float 1
LOOKUP_TABLE default
      0.999800
      0.999800
      0.999800
      0.999800
      0.999800
      0.999800
      0.999800
      0.999800
      0.999800
      0.999800
      0.999800
      0.999800
      0.999800
      0.999800
      0.999800
      0.999800
      0.999800
      0.999674
      0.999800
      0.999800
      0.999655
      0.999800
      0.999639
      0.999800
      0.999575
      0.999569
      0.999800
      0.999800
      0.999800
      0.999800
      0.999800
      0.999570
      0.999800
      0.999800
      0.999800
      0.999800
      0.999800
      0.999569
      0.999575
      0.999800
      0.999639
      0.999800
      0.999655
      0.999800
      0.999800
      0.999674
      0.999800
      0.999800
      0.999800
      0.999800
      0.999800
      0.999800
      0.999800
      0.999800
      0.999800
      0.999800
      0.999800
      0.999800
      0.999800
      0.999800
      0.999800
      0.999800
      0.999800
      0.999800
      0.999800
      0.999800
      0.999800
      0.999800
      0.999800
      0.999800
      0.999800
      0.999800
      0.999800
      0.999800
      0.999800
      0.999800
      0.999800
      0.999800
      0.999800
      0.999800
      0.999800
      0.999800
      0.999643
      0.999637
      0.999800
      0.999648
      0.999800
      0.999623
      0.999800
      0.999800
      0.999549
      0.999509
      0.999519
      0.999507
      0.999558
      0.999800
      0.999558
      0.999507
      0.999519
      0.999509
      0.999549
      0.999800
      0.999800
      0.999623
      0.999800
      0.999648
      0.999800
      0.999637
      0.999643
      0.999800
      0.999800
      0.999800
      0.999800
      0.999800
      0.999800
      0.999800
      0.999800
      0.999800
      0.999800
      0.999800
      0.999800
      0.999800
      0.999800
      0.999800
      0.999800
      0.999800
      0.999800
      0.999800
      0.999800
      0.999800
      0.999800
      0.999800
      0.999800
      0.999800
      0.999800
      0.999800
      0.999800
      0.999800
      0.999800
      0.999800
      0.999800
      0.999800
      0.999800
      0.999800
      0.999800
      0.999671
      0.999800
      0.999800
      0.999650
      0.999800
      0.999632
      0.999800
      0.999562
      0.999557
      0.999800
      0.999800
      0.999800
      0.999800
      0.999800
      0.999553
      0.999800
      0.999800
      0.999800
      0.999800
      0.999800
      0.999557
      0.999562
      0.999800
      0.999632
      0.999800
      0.999650
      0.999800
      0.999800
      0.999671
      0.999800
      0.999800
      0.999800
      0.999800
      0.999800
      0.999800
      0.999800
      0.999800
      0.999800
      0.999800
      0.999800
      0.999800
      0.999800
      0.999800
      0.999800
      0.999800
      0.999800
      0.999800
      0.999800
      0.999800
      0.999800
      0.999800
      0.999800
      0.999800
      0.999800
      0.999800
      0.999800
      0.999800
      0.999800
      0.999800
      0.999800
      0.999800
      0.999800
      0.999800
      0.999800
      0.999800
      0.999636
      0.999629
      0.999800
      0.999638
      0.999800
      0.999609
      0.999800
      0.999800
      0.999524
      0.999482
      0.999493
      0.999479
      0.999535
      0.999800
      0.999535
      0.999479
      0.999493
      0.999482
      0.999524
      0.999800
      0.999800
      0.999609
      0.999800
      0.999638
      0.999800
      0.999629
      0.999636
      0.999800
      0.999800
      0.999800
      0.999800
      0.999800
      0.999800
      0.999800
      0.999800
      0.999800
      0.999800
      0.999800
      0.999800
      0.999800
      0.999800
      0.999800
      0.999800
      0.999800
      0.999800
      0.999800
      0.999800
      0.999800
      0.999800
      0.999800
      0.999800
      0.999800
      0.999800
      0.999800
      0.999800
      0.999800
      0.999800
      0.999800
      0.999800
      0.999800
      0.999800
      0.999800
      0.999800
      0.999665
      0.999800
      0.999800
      0.999639
      0.999800
      0.999616
      0.999800
      0.999534
      0.999529
      0.999800
      0.999800
      0.999800
      0.999800
      0.999800
      0.999514
      0.999800
      0.999800
      0.999800
      0.999800
      0.999800
      0.999529
      0.999534
      0.999800
      0.999616
      0.999800
      0.999639
      0.999800
      0.999800
      0.999665
      0.999800
      0.999800
      0.999800
      0.999800
      0.999800
      0.999800
      0.999800
      0.999800
      0.999800
      0.999800
      0.999800
      0.999800
      0.999800
      0.999800
      0.999800
      0.999800
      0.999800
      0.999800
      0.999800
      0.999800
      0.999800
      0.999800
      0.999800
      0.999800
      0.999800
      0.999800
      0.999800
      0.999800
      0.999800
      0.999800
      0.999800
      0.999800
      0.999800
      0.999800
      0.999800
      0.999800
      0.999624
      0.999615
      0.999800
      0.999621
      0.999800
      0.999583
      0.999800
      0.999800
      0.999477
      0.999428
      0.999441
      0.999424
      0.999490
      0.999800
      0.999490
      0.999424
      0.999441
      0.999428
      0.999477
      0.999800
      0.999800
      0.999583
      0.999800
      0.999621
      0.999800
      0.999615
      0.999624
      0.999800
      0.999800
      0.999800
      0.999800
      0.999800
      0.999800
      0.999800
      0.999800
      0.999800
      0.999800
      0.999800
      0.999800
      0.999800
      0.999800
      0.999800
      0.999800
      0.999800
      0.999800
      0.999800
      0.999800
      0.999800
      0.999800
      0.999800
      0.999800
      0.999800
      0.999800
      0.999800
      0.999800
      0.999800
      0.999800
      0.999800
      0.999800
      0.999800
      0.999800
      0.999800
      0.999800
      0.999655
      0.999800
      0.999800
      0.999620
      0.999800
      0.999589
      0.999800
      0.999484
      0.999479
      0.999800
      0.999800
      0.999800
      0.999800
      0.999800
      0.999441
      0.999800
      0.999800
      0.999800
      0.999800
      0.999800
      0.999479
      0.999484
      0.999800
      0.999589
      0.999800
      0.999620
      0.999800
      0.999800
      0.999655
      0.999800
      0.999800
      0.999800
      0.999800
      0.999800
      0.999800
      0.999800
      0.999800
      0.999800
      0.999800
      0.999800
      0.999800
      0.999800
      0.999800
      0.999800
      0.999800
      0.999800
      0.999800
      0.999800
      0.999800
      0.999800
      0.999800
      0.999800
      0.999800
      0.999800
      0.999800
      0.999800
      0.999800
      0.999800
      0.999800
      0.999800
      0.999800
      0.999800
      0.999800
      0.999800
      0.999800
      0.999605
      0.999592
      0.999800
      0.999593
      0.999800
      0.999539
      0.999800
      0.999800
      0.999391
      0.999325
      0.999343
      0.999319
      0.999410
      0.999800
      0.999410
      0.999319
      0.999343
      0.999325
      0.999391
      0.999800
      0.999800
      0.999539
      0.999800
      0.999593
      0.999800
      0.999592
      0.999605
      0.999800
      0.999800
      0.999800
      0.999800
      0.999800
      0.999800
      0.999800
      0.999800
      0.999800
      0.999800
      0.999800
      0.999800
      0.999800
      0.999800
      0.999800
      0.999800
      0.999800
      0.999800
      0.999800
      0.999800
      0.999800
      0.999800
      0.999800
      0.999800
      0.999800
      0.999800
      0.999800
      0.999800
      0.999800
      0.999800
      0.999800
      0.999800
      0.999800
      0.999800
      0.999800
      0.999800
      0.999640
      0.999800
      0.999800
      0.999590
      0.999800
      0.999544
      0.999800
      0.999395
      0.999392
      0.999800
      0.999800
      0.999800
      0.999800
      0.999800
      0.999263
      0.999800
      0.999800
      0.999800
      0.999800
      0.999800
      0.999392
      0.999395
      0.999800
      0.999544
      0.999800
      0.999590
      0.999800
      0.999800
      0.999640
      0.999800
      0.999800
      0.999800
      0.999800
      0.999800
      0.999800
      0.999800
      0.999800
      0.999800
      0.999800
      0.999800
      0.999800
      0.999800
      0.999800
      0.999800
      0.999800
      0.999800
      0.999800
      0.999800
      0.999800
      0.999800
      0.999800
      0.999800
      0.999800
      0.999800
      0.999800
      0.999800
      0.999800
      0.999800
      0.999800
      0.999800
      0.999800
      0.999800
      0.999800
      0.999800
      0.999800
      0.999575
      0.999557
      0.999800
      0.999547
      0.999800
      0.999463
      0.999800
      0.999800
      0.999181
      0.999084
      0.999111
      0.999077
      0.999214
      0.999800
      0.999214
      0.999077
      0.999111
      0.999084
      0.999181
      0.999800
      0.999800
      0.999463
      0.999800
      0.999547
      0.999800
      0.999557
      0.999575
      0.999800
      0.999800
      0.999800
      0.999800
      0.999800
      0.999800
      0.999800
      0.999800
      0.999800
      0.999800
      0.999800
      0.999800
      0.999800
      0.999800
      0.999800
      0.999800
      0.999800
      0.999800
      0.999800
      0.999800
      0.999800
      0.999800
      0.999800
      0.999800
      0.999800
      0.999800
      0.999800
      0.999800
      0.999800
      0.999800
      0.999800
      0.999800
      0.999800
      0.999800
      0.999800
      0.999800
      0.999620
      0.999800
      0.999800
      0.999542
      0.999800
      0.999468
      0.999800
      0.999182
      0.999183
      0.999800
      0.999800
      0.999800
      0.999800
      0.999800
      0.998869
      0.999800
      0.999800
      0.999800
      0.999800
      0.999800
      0.999183
      0.999182
      0.999800
      0.999468
      0.999800
      0.999542
      0.999800
      0.999800
      0.999620
      0.999800
      0.999800
      0.999800
      0.999800
      0.999800
      0.999800
      0.999800
      0.999800
      0.999800
      0.999800
      0.999800
      0.999800
      0.999800
      0.999800
      0.999800
      0.999800
      0.999800
      0.999800
      0.999800
      0.999800
      0.999800
      0.999800
      0.999800
      0.999800
      0.999800
      0.999800
      0.999800
      0.999800
      0.999800
      0.999800
      0.999800
      0.999800
      0.999800
      0.999800
      0.999800
      0.999800
      0.999531
      0.999502
      0.999800
      0.999471
      0.999800
      0.999291
      0.999800
      0.999800
      0.998736
      0.998583
      0.998627
      0.998570
      0.998800
      0.999800
      0.998800
      0.998570
      0.998627
      0.998583
      0.998736
      0.999800
      0.999800
      0.999291
      0.999800
      0.999471
      0.999800
      0.999502
      0.999531
      0.999800
      0.999800
      0.999800
      0.999800
      0.999800
      0.999800
      0.999800
      0.999800
      0.999800
      0.999800
      0.999800
      0.999800
      0.999800
      0.999800
      0.999800
      0.999800
      0.999800
      0.999800
      0.999800
      0.999800
      0.999800
      0.999800
      0.999800
      0.999800
      0.999800
      0.999800
      0.999800
      0.999800
      0.999800
      0.999800
      0.999800
      0.999800
      0.999800
      0.999800
      0.999800
      0.999800
      0.999591
      0.999800
      0.999800
      0.999465
      0.999800
      0.999300
      0.999800
      0.998729
      0.998747
      0.999800
      0.999800
      0.999800
      0.999800
      0.999800
      0.997837
      0.999800
      0.999800
      0.999800
      0.999800
      0.999800
      0.998747
      0.998729
      0.999800
      0.999300
      0.999800
      0.999465
      0.999800
      0.999800
      0.999591
      0.999800
      0.999800
      0.999800
      0.999800
      0.999800
      0.999800
      0.999800
      0.999800
      0.999800
      0.999800
      0.999800
      0.999800
      0.999800
      0.999800
      0.999800
      0.999800
      0.999800
      0.999800
      0.999800
      0.999800
      0.999800
      0.999800
      0.999800
      0.999800
      0.999800
      0.999800
      0.999800
      0.999800
      0.999800
      0.999800
      0.999800
      0.999800
      0.999800
      0.999800
      0.999800
      0.999800
      0.999464
      0.999416
      0.999800
      0.999305
      0.999800
      0.998906
      0.999800
      0.999800
      0.997586
      0.997288
      0.997380
      0.997257
      0.997751
      0.999800
      0.997751
      0.997257
      0.997380
      0.997288
      0.997586
      0.999800
      0.999800
      0.998906
      0.999800
      0.999305
      0.999800
      0.999416
      0.999464
      0.999800
      0.999800
      0.999800
      0.999800
      0.999800
      0.999800
      0.999800
      0.999800
      0.999800
      0.999800
      0.999800
      0.999800
      0.999800
      0.999800
      0.999800
      0.999800
      0.999800
      0.999800
      0.999800
      0.999800
      0.999800
      0.999800
      0.999800
      0.999800
      0.999800
      0.999800
      0.999800
      0.999800
      0.999800
      0.999800
      0.999800
      0.999800
      0.999800
      0.999800
      0.999800
      0.999800
      0.999551
      0.999800
      0.999800
      0.999294
      0.999800
      0.998923
      0.999800
      0.997551
      0.997647
      0.999800
      0.999800
      0.999800
      0.999800
      0.999800
      0.993606
      0.999800
      0.999800
      0.999800
      0.999800
      0.999800
      0.997647
      0.997551
      0.999800
      0.998923
      0.999800
      0.999294
      0.999800
      0.999800
      0.999551
      0.999800
      0.999800
      0.999800
      0.999800
      0.999800
      0.999800
      0.999800
      0.999800
      0.999800
      0.999800
      0.999800
      0.999800
      0.999800
      0.999800
      0.999800
      0.999800
      0.999800
      0.999800
      0.999800
      0.999800
      0.999800
      0.999800
      0.999800
      0.999800
      0.999800
      0.999800
      0.999800
      0.999800
      0.999800
      0.999800
      0.999800
      0.999800
      0.999800
      0.999800
      0.999800
      0.999800
      0.999344
      0.999215
      0.999800
      0.998932
      0.999800
      0.997917
      0.999800
      0.999800
      0.992932
      0.992057
      0.992380
      0.991915
      0.993824
      0.999800
      0.993824
      0.991915
      0.992380
      0.992057
      0.992932
      0.999800
      0.999800
      0.997917
      0.999800
      0.998932
      0.999800
      0.999215
      0.999344
      0.999800
      0.999800
      0.999800
      0.999800
      0.999800
      0.999800
      0.999800
      0.999800
      0.999800
      0.999800
      0.999800
      0.999800
      0.999800
      0.999800
      0.999800
      0.999800
      0.999800
      0.999800
      0.999800
      0.999800
      0.999800
      0.999800
      0.999800
      0.999800
      0.999800
      0.999800
      0.999800
      0.999800
      0.999800
      0.999800
      0.999800
      0.999800
      0.999800
      0.999800
      0.999800
      0.999779
      0.999514
      0.999800
      0.999800
      0.998882
      0.999800
      0.997913
      0.999800
      0.992649
      0.993589
      0.999800
      0.999800
      0.999800
      0.999800
      0.999800
      0.912974
      0.999800
      0.999800
      0.999800
      0.999800
      0.999800
      0.993589
      0.992649
      0.999800
      0.997913
      0.999800
      0.998882
      0.999800
      0.999800
      0.999514
      0.999779
      0.999800
      0.999800
      0.999800
      0.999800
      0.999800
      0.999800
      0.999800
      0.999800
      0.999800
      0.999800
      0.999800
      0.999800
      0.999800
      0.999800
      0.999800
      0.999800
      0.999800
      0.999674
      0.999800
      0.999671
      0.999800
      0.999665
      0.999800
      0.999655
      0.999800
      0.999640
      0.999800
      0.999620
      0.999800
      0.999591
      0.999800
      0.999551
      0.999800
      0.999514
      0.999800
      0.998512
      0.999442
      0.999800
      0.998926
      0.999800
      0.995395
      0.999800
      0.999800
      0.902308
      0.901672
      0.890222
      0.917216
      0.807537
      0.747866
      0.807537
      0.917216
      0.890222
      0.901672
      0.902308
      0.999800
      0.999800
      0.995395
      0.999800
      0.998926
      0.999800
      0.999442
      0.998512
      0.999800
      0.999514
      0.999800
      0.999551
      0.999800
      0.999591
      0.999800
      0.999620
      0.999800
      0.999640
      0.999800
      0.999655
      0.999800
      0.999665
      0.999800
      0.999671
      0.999800
      0.999674
      0.999800
      0.999800
      0.999643
      0.999800
      0.999636
      0.999800
      0.999624
      0.999800
      0.999605
      0.999800
      0.999575
      0.999800
      0.999531
      0.999800
      0.999464
      0.999800
      0.999344
      0.999800
      0.998512
      0.999800
      0.999763
      0.999800
      0.999592
      0.998892
      0.998764
      0.919967
      0.818208
      0.818252
      0.911996
      0.892349
      0.899941
      0.903613
      0.998094
      0.903613
      0.899941
      0.892349
      0.911996
      0.818252
      0.818208
      0.919967
      0.998764
      0.998892
      0.999592
      0.999800
      0.999763
      0.999800
      0.998512
      0.999800
      0.999344
      0.999800
      0.999464
      0.999800
      0.999531
      0.999800
      0.999575
      0.999800
      0.999605
      0.999800
      0.999624
      0.999800
      0.999636
      0.999800
      0.999643
      0.999800
      0.999646
      0.999800
      0.999637
      0.999800
      0.999629
      0.999800
      0.999615
      0.999800
      0.999592
      0.999800
      0.999557
      0.999800
      0.999502
      0.999800
      0.999416
      0.999800
      0.999215
      0.999800
      0.999442
      0.999763
      0.995698
      0.999800
      0.988337
      0.999800
      0.825455
      0.818075
      0.919391
      0.999211
      0.999800
      0.999800
      0.999800
      0.999800
      0.996708
      0.999800
      0.999800
      0.999800
      0.999800
      0.999211
      0.919391
      0.818075
      0.825455
      0.999800
      0.988337
      0.999800
      0.995698
      0.999763
      0.999442
      0.999800
      0.999215
      0.999800
      0.999416
      0.999800
      0.999502
      0.999800
      0.999557
      0.999800
      0.999592
      0.999800
      0.999615
      0.999800
      0.999629
      0.999800
      0.999637
      0.999800
      0.999640
      0.999655
      0.999800
      0.999650
      0.999800
      0.999639
      0.999800
      0.999620
      0.999800
      0.999590
      0.999800
      0.999542
      0.999800
      0.999465
      0.999800
      0.999294
      0.999800
      0.998882
      0.999800
      0.999800
      0.999800
      0.988586
      0.999800
      0.826324
      0.825525
      0.999800
      0.999800
      0.996830
      0.989917
      0.993873
      0.990764
      0.994186
      0.999800
      0.994186
      0.990764
      0.993873
      0.989917
      0.996830
      0.999800
      0.999800
      0.825525
      0.826324
      0.999800
      0.988586
      0.999800
      0.999800
      0.999800
      0.998882
      0.999800
      0.999294